4806
Lattice="34.27709584431888 8.2217143878053e-310 0.0 8.22425263398244e-310 34.238317681437664 0.0 0.0 0.0 34.275400434346885" Properties=species:S:1:pos:R:3:forces:R:3 stress="-0.0074916581159108755 -4.0566906e-316 -0.0 -4.0566906e-316 -0.0074890036412341935 -0.0 -0.0 -0.0 -0.007491711275633397" energy=-797.931356404 pbc="T T T"
O      10.02416048       3.46823030      -0.05808109      -0.00000025       0.00000003       0.00000009 
H      11.00177625       3.55520684      -0.05425840      -0.00000025      -0.00000001       0.00000015 
H       9.80272256       2.95981467      -0.86931180      -0.00000021       0.00000003       0.00000007 
O       3.36481465       0.00336555       1.43974570      -0.00000035       0.00000000       0.00000002 
H       2.84765401       0.78607381       1.73298095      -0.00000043      -0.00000003      -0.00000002 
H       2.84363591      -0.78241962       1.71683087      -0.00000035      -0.00000002      -0.00000003 
O      -0.11778192       2.88419396       5.76219554      -0.00000010      -0.00000010       0.00000012 
H       0.68558895       3.45108722       5.75280662      -0.00000014      -0.00000003       0.00000015 
H      -0.90400899       3.47365012       5.80016260      -0.00000013      -0.00000015       0.00000010 
O       7.66933938       3.56002982       7.72841648      -0.00000018       0.00000004       0.00000014 
H       8.16044502       3.86380499       6.93312465      -0.00000015       0.00000010       0.00000018 
H       6.91085537       3.01319026       7.42622717      -0.00000015       0.00000003       0.00000008 
O       1.97915481       2.13571047       2.24246127      -0.00000029       0.00000007       0.00000008 
H       2.57114252       2.69906357       2.78883903      -0.00000025       0.00000006       0.00000003 
H       1.20988997       1.87061952       2.79487501      -0.00000025       0.00000007       0.00000012 
O      -0.10704813       8.40557248       5.69292271      -0.00000013      -0.00000012       0.00000003 
H       0.67372259       7.81056794       5.69499234      -0.00000028      -0.00000028       0.00000010 
H      -0.89949874       7.82895053       5.66074156      -0.00000030       0.00000015       0.00000016 
O       1.95816471       9.26455366       2.05595871       0.00000021      -0.00000015       0.00000003 
H       1.19461458       9.57930226       2.58516946       0.00000050       0.00000006       0.00000030 
H       1.61718607       8.71800320       1.31425457      -0.00000009      -0.00000005       0.00000010 
O       5.62349227       9.21093908       4.49542976      -0.00000042       0.00000017       0.00000025 
H       5.60874505      10.09224116       4.06711555      -0.00000038       0.00000013       0.00000017 
H       5.67390067       9.31281373       5.47170159      -0.00000043       0.00000029       0.00000024 
O       7.06017601       5.57890307       9.32915254      -0.00000011      -0.00000015       0.00000021 
H       7.29353330       4.79618812       8.78172252      -0.00000013      -0.00000013       0.00000017 
H       7.59081667       5.56091969      10.15446430      -0.00000008      -0.00000011       0.00000019 
O       9.19748956       2.18302118       9.37427790      -0.00000028      -0.00000000       0.00000006 
H       8.64382600       2.71641343       8.76070594      -0.00000028       0.00000000       0.00000005 
H       9.51436694       2.77469001      10.09105027      -0.00000027       0.00000000       0.00000004 
O       3.62927796       3.62455707       3.67058046      -0.00000015       0.00000010      -0.00000001 
H       4.40323019       3.08563690       3.94207971      -0.00000019       0.00000007       0.00000002 
H       3.96394785       4.41225227       3.18868978      -0.00000009       0.00000004      -0.00000005 
O       2.10564171       4.30886942       5.75019775      -0.00000018       0.00000002       0.00000001 
H       2.67682769       4.05686993       4.99258967      -0.00000016       0.00000005       0.00000002 
H       2.62914482       4.09078611       6.55307967      -0.00000019       0.00000016       0.00000003 
O       3.52071520       7.84884877       3.64691597      -0.00000012      -0.00000016      -0.00000005 
H       2.96557011       8.40233047       3.05237219      -0.00000002      -0.00000019      -0.00000021 
H       4.26944297       8.40018428       3.96622277      -0.00000013      -0.00000017      -0.00000003 
O       3.57777390       3.64716928       7.86928911       0.00000010       0.00000022      -0.00000005 
H       4.32696559       3.10978157       7.53532011       0.00000008       0.00000024      -0.00000013 
H       3.95410471       4.42641270       8.33695567       0.00000014       0.00000014       0.00000005 
O       7.85440825      -0.06070939       1.39997358      -0.00000016      -0.00000008       0.00000006 
H       8.39602731       0.71552630       1.65911760      -0.00000016      -0.00000006       0.00000002 
H       8.35551561      -0.85044439       1.69967649      -0.00000010      -0.00000006       0.00000004 
O       5.69027231       2.09682953       4.39591259      -0.00000020      -0.00000002       0.00000009 
H       6.46748537       2.61701825       4.10111112      -0.00000018      -0.00000005       0.00000008 
H       5.66110358       1.30728397       3.81205277      -0.00000024      -0.00000002       0.00000010 
O       9.30196753       9.40570924       2.21270743      -0.00000025       0.00000007      -0.00000004 
H      10.08462754       9.70160760       2.73020080      -0.00000026       0.00000007      -0.00000004 
H       8.77661559      10.19621086       1.96174703      -0.00000025       0.00000007      -0.00000005 
O       5.68091436       9.16765214       7.15035372      -0.00000001      -0.00000007       0.00000037 
H       4.86670327       8.65370851       7.35522864      -0.00000009       0.00000005       0.00000021 
H       6.43793496       8.61843658       7.45767645      -0.00000008      -0.00000018       0.00000028 
O       9.13472606       4.37335773       5.67064696      -0.00000019       0.00000008       0.00000014 
H       8.63529682       4.13655119       4.85807015      -0.00000019       0.00000004       0.00000016 
H       9.17906852       5.35478144       5.68695718      -0.00000020       0.00000009       0.00000009 
O       3.33878022      -0.10441293      10.12460581      -0.00000002      -0.00000008       0.00000019 
H       2.80761042      -0.88514287       9.84742417      -0.00000007      -0.00000003       0.00000015 
H       3.35452941      -0.09512470      11.10822843      -0.00000010      -0.00000008       0.00000019 
O       5.56835982       2.08524912       7.03600718       0.00000001       0.00000005       0.00000003 
H       5.56710183       1.26330065       7.57316409      -0.00000008       0.00000008       0.00000008 
H       5.61376984       1.87891537       6.08007749      -0.00000003       0.00000000       0.00000004 
O       3.49040009       7.82466176       7.80714938      -0.00000029      -0.00000005       0.00000012 
H       2.90983719       8.40688604       8.34780151      -0.00000030      -0.00000003       0.00000009 
H       2.95949843       7.50339954       7.04490444      -0.00000021      -0.00000009       0.00000010 
O       9.94486873       7.82722626       0.17438299      -0.00000022       0.00000001       0.00000002 
H       9.39938513       7.01013518       0.14317871      -0.00000020      -0.00000000       0.00000005 
H       9.67317856       8.36157424       0.95229876      -0.00000025       0.00000003      -0.00000001 
O       9.22768872       9.34336704       9.48679175      -0.00000022      -0.00000012      -0.00000002 
H       9.57075817       8.84890458      10.26199168      -0.00000019      -0.00000001       0.00000004 
H       8.65988801      10.06676666       9.82894580      -0.00000030      -0.00000015      -0.00000011 
O      -0.15771103       1.36125351       3.60222981      -0.00000031       0.00000001       0.00000010 
H      -0.20568619       1.93286763       4.39998758      -0.00000019      -0.00000003       0.00000013 
H      -0.92309760       1.59536062       3.03048431      -0.00000034       0.00000008       0.00000018 
O       9.30409446       2.06350771       2.07365575      -0.00000022      -0.00000002       0.00000001 
H       9.64193972       2.54203612       1.28563199      -0.00000025      -0.00000001      -0.00000000 
H      10.07053056       1.76871312       2.61012228      -0.00000022      -0.00000000      -0.00000000 
O       9.09529380       7.03982369       5.75996393      -0.00000010       0.00000010       0.00000008 
H       8.55092303       7.33639071       4.99564719      -0.00000009       0.00000015       0.00000010 
H       8.60041062       7.28753873       6.57186054      -0.00000013      -0.00000001       0.00000010 
O       8.47803701       5.62179050      -0.05625264      -0.00000020       0.00000001       0.00000017 
H       9.05037151       4.82583096      -0.09939354      -0.00000021      -0.00000000       0.00000018 
H       7.89463527       5.63075965      -0.84558449      -0.00000021      -0.00000001       0.00000018 
O      -0.19731307       9.92730597       7.88003706      -0.00000005       0.00000046       0.00000010 
H      -0.96962289       9.62136324       8.40313275      -0.00000018       0.00000012      -0.00000031 
H      -0.17203301       9.37232703       7.07102073       0.00000029       0.00000092      -0.00000016 
O       7.78104649       7.74230274       7.96241382      -0.00000008      -0.00000027       0.00000013 
H       7.53753984       6.94869549       8.48733634      -0.00000011      -0.00000025       0.00000015 
H       8.32077104       8.31499471       8.55050375      -0.00000012      -0.00000023       0.00000013 
O       5.61385708      -0.02617596       2.80060473      -0.00000025      -0.00000002       0.00000003 
H       4.80875191      -0.01541966       2.23262995      -0.00000025      -0.00000002       0.00000005 
H       6.40028430      -0.02198883       2.21097355      -0.00000025      -0.00000003       0.00000004 
O      -0.01381643       1.28294771       7.88395645      -0.00000012      -0.00000005       0.00000020 
H       0.78050902       1.57340095       8.38246629      -0.00000005      -0.00000008       0.00000009 
H      -0.04934636       1.84185079       7.07794438      -0.00000011      -0.00000012       0.00000016 
O       2.11569299       6.97194480       5.70009444      -0.00000012      -0.00000001      -0.00000012 
H       2.62031074       7.25388074       4.90300003      -0.00000012      -0.00000033      -0.00000025 
H       2.06399303       5.99089639       5.68759705      -0.00000034      -0.00000000       0.00000003 
O       4.35378979       5.75585786       2.25622915      -0.00000001       0.00000006      -0.00000006 
H       4.10937285       6.56169141       2.76404587      -0.00000010       0.00000003      -0.00000004 
H       5.32567100       5.78249427       2.13158064      -0.00000000       0.00000016       0.00000001 
O       4.40862179       5.77406802       9.21833150       0.00000001       0.00000007       0.00000034 
H       4.13335522       6.56948468       8.70877240       0.00000005       0.00000005       0.00000031 
H       5.38322099       5.78019495       9.31833726       0.00000002       0.00000000       0.00000033 
O       2.05719408       2.08427248       9.35725584       0.00000019       0.00000004      -0.00000006 
H       2.67081782       2.65400207       8.84115953       0.00000020       0.00000002      -0.00000006 
H       2.56114644       1.28659915       9.63289854       0.00000017       0.00000005      -0.00000001 
O      -0.03734129      10.07296417       3.62255018       0.00000067       0.00000002       0.00000034 
H      -0.05434719      11.03298139       3.82041860       0.00000082      -0.00000004       0.00000044 
H      -0.03797676       9.55222201       4.45349120       0.00000060      -0.00000011       0.00000025 
O       1.21630162       7.75113180      -0.00039855      -0.00000006      -0.00000000       0.00000016 
H       1.70173755       6.89998861       0.05691803       0.00000005       0.00000006       0.00000018 
H       0.25309063       7.57774431       0.01021762      -0.00000003      -0.00000012       0.00000005 
O       1.26380219       3.46939616       0.05915999      -0.00000008       0.00000011      -0.00000002 
H       1.49753256       2.95307342       0.86301800      -0.00000017       0.00000011       0.00000000 
H       1.53786590       2.91643718      -0.70930408      -0.00000010       0.00000004       0.00000003 
O       7.73658017       3.59130127       3.55927148      -0.00000022      -0.00000002       0.00000013 
H       7.45178512       4.37417910       3.04090297      -0.00000023       0.00000002       0.00000019 
H       8.32517556       3.06566718       2.97420508      -0.00000029      -0.00000001       0.00000006 
O       7.72518258       7.82896683       3.63085697      -0.00000026       0.00000025       0.00000009 
H       8.30382505       8.45361505       3.13983894      -0.00000026       0.00000020       0.00000003 
H       6.94820233       8.35055627       3.92754487      -0.00000022       0.00000027       0.00000013 
O       7.01237607       5.74337042       2.15661878      -0.00000011       0.00000010       0.00000014 
H       7.52463210       5.69004794       1.32040520      -0.00000011       0.00000010       0.00000014 
H       7.31324761       6.54697144       2.63361376      -0.00000016       0.00000013       0.00000012 
O       1.95556529       9.34843908       9.32435033      -0.00000021       0.00000005       0.00000011 
H       2.43482114      10.14434317       9.64729436      -0.00000012       0.00000001       0.00000009 
H       1.17587229       9.64223293       8.80370503      -0.00000012       0.00000018       0.00000003 
O       5.57934311       0.00304184       8.69266614      -0.00000018       0.00000009       0.00000001 
H       6.36466226       0.02606510       9.28068134      -0.00000017       0.00000009      -0.00000001 
H       4.78913882      -0.04271455       9.27257383      -0.00000015       0.00000005       0.00000003 
O       2.80309736       5.62066039       0.10956307      -0.00000000       0.00000013       0.00000013 
H       3.37932728       5.63400961       0.90427445       0.00000005       0.00000010       0.00000010 
H       2.27945119       4.78852979       0.12563113       0.00000001       0.00000012       0.00000011 
O       7.79009486       0.07474248      10.15774581      -0.00000032       0.00000008       0.00000008 
H       7.72445461       0.04544571      11.13531723      -0.00000033       0.00000006       0.00000007 
H       8.28239639       0.89777721       9.93987592      -0.00000028       0.00000007       0.00000010 
O      21.39946061       3.62254089      -0.00135844      -0.00000016       0.00000009       0.00000004 
H      20.82424484       4.41756259      -0.00853413      -0.00000023       0.00000004       0.00000002 
H      21.15380159       3.09617626      -0.79491248      -0.00000011       0.00000007       0.00000004 
O      14.80350964       0.03661974       1.36557205      -0.00000023       0.00000007       0.00000009 
H      14.28288842      -0.76133162       1.61229339      -0.00000020       0.00000005       0.00000007 
H      14.27220166       0.81139493       1.65922427      -0.00000023       0.00000005       0.00000014 
O      11.28859918       2.82402685       5.79714840      -0.00000009       0.00000017       0.00000009 
H      10.50231139       3.41096444       5.78623828      -0.00000014       0.00000011       0.00000014 
H      11.23185641       2.26237672       6.59856113      -0.00000003       0.00000015       0.00000008 
O      19.15824397       3.64286972       7.84078683      -0.00000025       0.00000017       0.00000015 
H      18.83851526       4.41392095       8.35774787      -0.00000026       0.00000015       0.00000018 
H      19.71007344       3.99913459       7.11280519      -0.00000029       0.00000020       0.00000015 
O      13.38957149       2.13383758       2.20761433      -0.00000019      -0.00000009       0.00000021 
H      12.65439430       1.82167563       2.77705144      -0.00000020      -0.00000006       0.00000022 
H      13.98012228       2.67276281       2.77983874      -0.00000020      -0.00000006       0.00000019 
O      11.29126362       8.51665740       5.81912860      -0.00000007       0.00000006       0.00000010 
H      10.46544922       7.98533536       5.81041034      -0.00000005       0.00000004       0.00000017 
H      11.24663118       9.10218615       6.60383082      -0.00000001       0.00000003       0.00000013 
O      13.46571144       9.38070803       2.04681297      -0.00000004      -0.00000007       0.00000018 
H      14.00853477      10.12773142       1.70969892      -0.00000007      -0.00000005       0.00000019 
H      13.14969846       8.84604715       1.28600584      -0.00000002      -0.00000007       0.00000017 
O      17.05811161       9.22347034       4.33291777      -0.00000020      -0.00000008       0.00000002 
H      16.26024718       8.69841358       4.10155266      -0.00000020      -0.00000010       0.00000008 
H      17.83579228       8.66547407       4.10436402      -0.00000019      -0.00000007       0.00000003 
O      18.32971955       5.75855524       9.23671649      -0.00000028       0.00000012       0.00000019 
H      17.34919355       5.75812367       9.27809943      -0.00000028       0.00000008       0.00000015 
H      18.57956210       6.52415755       8.67907034      -0.00000027       0.00000008       0.00000014 
O      20.65789951       2.04319451       9.32828213      -0.00000023      -0.00000002       0.00000010 
H      20.11653092       2.62554944       8.75111528      -0.00000019      -0.00000001       0.00000009 
H      21.43151231       1.74745744       8.79921464      -0.00000022      -0.00000003       0.00000014 
O      14.98746837       3.59591352       3.71656004      -0.00000019      -0.00000001       0.00000013 
H      15.76560681       3.06380487       3.99874549      -0.00000021      -0.00000003       0.00000016 
H      14.48191590       3.84256526       4.52052934      -0.00000016       0.00000007       0.00000012 
O      13.51247629       4.30576953       5.81452207      -0.00000013       0.00000014       0.00000018 
H      14.02574070       4.02689655       6.60307134      -0.00000011       0.00000016       0.00000017 
H      12.68732682       3.77515982       5.82881632      -0.00000011       0.00000012       0.00000018 
O      14.89070495       7.84781668       3.64992263      -0.00000016      -0.00000010       0.00000023 
H      14.31810959       7.53593034       4.38401916      -0.00000015      -0.00000006       0.00000025 
H      14.34276044       8.41910547       3.06411758      -0.00000014      -0.00000008       0.00000024 
O      14.97326740       3.48800999       7.89450343      -0.00000013       0.00000008       0.00000013 
H      14.38737363       2.93061899       8.45426413      -0.00000013       0.00000009       0.00000014 
H      15.72580927       2.94200251       7.57687015      -0.00000013       0.00000008       0.00000014 
O      19.22786457       0.05232727       1.30944682      -0.00000027      -0.00000007       0.00000012 
H      19.13900254       0.08451415       0.33525811      -0.00000023      -0.00000002       0.00000013 
H      19.71580153       0.86365493       1.56983931      -0.00000028      -0.00000007       0.00000015 
O      17.11375637       2.14327450       4.36132406      -0.00000020      -0.00000005       0.00000011 
H      17.90166127       2.67987615       4.12680030      -0.00000022      -0.00000007       0.00000003 
H      17.12233052       1.34160536       3.79359724      -0.00000028      -0.00000007       0.00000014 
O      20.62705085       9.27147166       2.05994028      -0.00000023      -0.00000012       0.00000007 
H      20.94241422       8.77292834       1.27597637      -0.00000022      -0.00000015       0.00000009 
H      20.08347842      10.02109520       1.73646620      -0.00000023      -0.00000013       0.00000006 
O      16.99295177       9.21910912       7.01048080      -0.00000025      -0.00000014      -0.00000003 
H      16.19134498       8.70151152       7.24517338      -0.00000020      -0.00000020       0.00000000 
H      16.99770505       9.29229889       6.03246274      -0.00000027      -0.00000015      -0.00000003 
O      20.68029799       4.40849377       5.79161578      -0.00000018       0.00000010       0.00000011 
H      21.49698017       3.86428523       5.79398921      -0.00000017       0.00000013       0.00000023 
H      20.90255547       5.36140756       5.77663332      -0.00000023       0.00000011       0.00000008 
O      14.88378240       0.03620412      10.06623701      -0.00000017       0.00000003       0.00000020 
H      15.71614934       0.07009595       9.54468288      -0.00000017      -0.00000000       0.00000019 
H      14.35110320       0.82187887       9.81705444      -0.00000017       0.00000001       0.00000014 
O      17.10241100       2.16235355       7.02834441      -0.00000017       0.00000005       0.00000016 
H      17.11471568       2.03464577       6.05726707      -0.00000018       0.00000006       0.00000017 
H      17.87860265       2.71874704       7.25401333      -0.00000020       0.00000009       0.00000016 
O      14.88141499       7.80027605       7.78604844      -0.00000012      -0.00000017       0.00000013 
H      14.34467603       7.48858902       7.02611294      -0.00000013      -0.00000015       0.00000013 
H      14.29512481       8.38757634       8.31447144      -0.00000008      -0.00000010       0.00000009 
O      21.44133638       7.83024479      -0.02597757      -0.00000009      -0.00000016       0.00000021 
H      21.24670839       8.36496557      -0.82620473      -0.00000007      -0.00000022       0.00000017 
H      22.40850827       7.68032161      -0.02001823      -0.00000008      -0.00000013       0.00000028 
O      20.76100729       9.25384364       9.27337190      -0.00000019      -0.00000006       0.00000001 
H      20.16231627       8.73408517       8.69338709      -0.00000017      -0.00000006      -0.00000001 
H      21.53795491       9.50951179       8.72925639      -0.00000017      -0.00000010       0.00000005 
O      11.31078264       1.27550657       3.63308739      -0.00000022      -0.00000000       0.00000013 
H      11.27771886       1.75075087       4.48980422      -0.00000016       0.00000004       0.00000009 
H      11.35623099       0.30931424       3.78730927      -0.00000019      -0.00000000       0.00000017 
O      20.62483640       2.17931941       2.11188212      -0.00000020       0.00000001       0.00000005 
H      20.92575250       2.71881155       1.34986442      -0.00000019      -0.00000001       0.00000004 
H      20.09878579       2.77283368       2.69187011      -0.00000018       0.00000005       0.00000003 
O      20.69620287       7.05527456       5.71872005      -0.00000022       0.00000005      -0.00000001 
H      20.18863603       7.28810161       4.91174434      -0.00000024       0.00000006       0.00000000 
H      21.50676810       7.60924656       5.70164751      -0.00000020       0.00000003      -0.00000002 
O      19.78728352       5.74782360       0.03452059      -0.00000022       0.00000001       0.00000013 
H      20.38802369       6.52112477      -0.02203984      -0.00000017      -0.00000003       0.00000011 
H      19.24795207       5.72518507      -0.78359437      -0.00000024       0.00000004       0.00000014 
O      11.23711779      10.12608037       7.93946835      -0.00000012      -0.00000004       0.00000011 
H      11.25196630      11.09703898       7.79867102      -0.00000008      -0.00000002       0.00000017 
H      10.46773284       9.92843709       8.51843652      -0.00000015      -0.00000004       0.00000006 
O      19.15065577       7.82106690       7.74826838      -0.00000022      -0.00000006      -0.00000001 
H      18.37334699       8.32056175       7.42207381      -0.00000022      -0.00000009      -0.00000005 
H      19.68028330       7.54764370       6.96839956      -0.00000019      -0.00000007       0.00000001 
O      17.03503767      -0.00729064       2.79661875      -0.00000032      -0.00000012       0.00000013 
H      17.79576134       0.00675540       2.17715000      -0.00000033      -0.00000015       0.00000013 
H      16.21740986       0.00712737       2.24827391      -0.00000032      -0.00000008       0.00000013 
O      11.26496396       1.28132698       7.96350535      -0.00000018       0.00000013       0.00000006 
H      10.47046721       1.52047455       8.48788996      -0.00000022       0.00000013      -0.00000001 
H      11.25949438       0.30756632       7.84564223      -0.00000017       0.00000013       0.00000008 
O      13.45198703       6.96499632       5.70065878      -0.00000016       0.00000007       0.00000020 
H      13.33269812       5.99373403       5.74187093      -0.00000016       0.00000007       0.00000019 
H      12.58285467       7.40924900       5.76998163      -0.00000015       0.00000009       0.00000020 
O      15.63581275       5.71736602       2.24768917      -0.00000018       0.00000002       0.00000008 
H      15.36132931       6.51232707       2.75855936      -0.00000021      -0.00000003       0.00000014 
H      15.41235707       4.94505647       2.81195087      -0.00000011      -0.00000002       0.00000005 
O      15.65372639       5.68602366       9.20414214      -0.00000012      -0.00000007       0.00000008 
H      15.42355930       4.87421443       8.69857813      -0.00000013      -0.00000006       0.00000007 
H      15.34456681       6.45350792       8.67422317      -0.00000016      -0.00000005       0.00000012 
O      13.33111181       2.09817222       9.42421659      -0.00000009       0.00000003       0.00000004 
H      12.53958639       1.79118173       8.92964946      -0.00000012       0.00000009       0.00000006 
H      13.04006385       2.60682135      10.21319475      -0.00000002       0.00000002       0.00000007 
O      11.44546443      10.04419605       3.64835787      -0.00000024      -0.00000002       0.00000000 
H      11.45734990       9.47016837       4.44593363      -0.00000025       0.00000006       0.00000006 
H      12.22419281       9.81892502       3.09207464      -0.00000020      -0.00000004       0.00000008 
O      12.59961192       7.81562108       0.07763209      -0.00000013      -0.00000001       0.00000010 
H      11.63586239       7.65144165       0.13905378      -0.00000013       0.00000002       0.00000010 
H      13.07620407       6.95661624       0.07614682      -0.00000018      -0.00000003       0.00000006 
O      12.68764218       3.44960633       0.00472566      -0.00000034      -0.00000007       0.00000027 
H      12.92344115       2.86743325      -0.75117050      -0.00000036      -0.00000004       0.00000024 
H      12.91737376       2.95728473       0.82255213      -0.00000036      -0.00000011       0.00000025 
O      19.17089568       3.69605980       3.71761071      -0.00000023       0.00000004       0.00000006 
H      19.71675752       4.02692119       4.46371444      -0.00000021       0.00000003       0.00000004 
H      18.84336379       4.46395084       3.20165192      -0.00000019       0.00000006       0.00000007 
O      19.16896850       7.75515718       3.65953839      -0.00000022       0.00000000       0.00000012 
H      18.83090753       6.99832425       3.13372358      -0.00000021      -0.00000002       0.00000014 
H      19.69821558       8.29809466       3.03479355      -0.00000021      -0.00000003       0.00000010 
O      18.28614333       5.69780292       2.22113202      -0.00000019       0.00000015       0.00000010 
H      18.73717436       5.73458725       1.35128569      -0.00000017       0.00000016       0.00000012 
H      17.31186636       5.72332440       2.09830257      -0.00000018       0.00000017       0.00000009 
O      13.37203147       9.35290402       9.30957125      -0.00000007      -0.00000001      -0.00000008 
H      12.60394761       9.72465098       8.82229408      -0.00000011      -0.00000005      -0.00000005 
H      13.92214842      10.09583298       9.64095063      -0.00000011       0.00000003      -0.00000010 
O      17.07784720      -0.00766613       8.56392028      -0.00000021      -0.00000008       0.00000006 
H      17.88313230      -0.02367799       9.12805946      -0.00000022      -0.00000021       0.00000006 
H      17.15003365       0.78808200       7.99739667      -0.00000012      -0.00000006       0.00000011 
O      14.13553286       5.66154652       0.06843877      -0.00000021      -0.00000012       0.00000007 
H      13.61598416       4.82821338       0.04391810      -0.00000024      -0.00000010       0.00000015 
H      14.67163278       5.64529854       0.89168045      -0.00000017      -0.00000008       0.00000004 
O      19.23463167      -0.05965815      10.11401174      -0.00000017      -0.00000017       0.00000009 
H      19.77709840       0.71073275       9.83245407      -0.00000023      -0.00000013       0.00000010 
H      19.75954365      -0.86158674       9.89083243      -0.00000012      -0.00000014       0.00000007 
O      32.89015356       3.51739183      -0.00573766      -0.00000013      -0.00000009      -0.00000001 
H      33.86081961       3.66680659       0.00962539      -0.00000013      -0.00000006      -0.00000003 
H      32.40034156       4.36801237      -0.00220194      -0.00000015      -0.00000010       0.00000002 
O      26.25079821      -0.00875220       1.31946180      -0.00000013       0.00000010       0.00000012 
H      26.36814693      -0.03004810       0.34675054      -0.00000013       0.00000013       0.00000012 
H      25.69914612       0.77752439       1.51753705      -0.00000016       0.00000007       0.00000014 