4224
Lattice="29.932644838593184 1.9691513091e-313 0.0 2.17583247985e-313 33.204413792432334 0.0 0.0 0.0 28.649670697890976" Properties=species:S:1:pos:R:3:forces:R:3 stress="-0.0005220558282041549 -5.7307348e-316 -0.0 -5.7307348e-316 -0.0008204054168384858 -0.0 -0.0 -0.0 -0.0007182987251559413" cutoff=-1.0 energy=-503.834198258 nneightol=1.2 pbc="T T T"
O       4.15427523       3.44186544       4.75843928      -0.00000010       0.00000006       0.00000003 
H       3.88104484       3.92337368       5.56281694       0.00000030      -0.00000066      -0.00000088 
H       5.13016891       3.45329097       4.75037232      -0.00000098       0.00000029       0.00000044 
O       3.32888488       4.85919616       2.37096519       0.00000010      -0.00000005       0.00000002 
H       3.60211652       4.37768800       3.17534224      -0.00000029       0.00000067      -0.00000088 
H       2.35299049       4.84777084       2.36289945       0.00000098      -0.00000029       0.00000044 
O       0.41267877       0.70865996       4.75843779      -0.00000010      -0.00000007       0.00000004 
H       0.13945510       0.22714941       5.56281625       0.00000029       0.00000065      -0.00000086 
H       1.38857217       0.69723999       4.75036938      -0.00000098      -0.00000031       0.00000046 
O       7.07049186       7.59240417       2.37096623       0.00000009       0.00000003       0.00000001 
H       7.34371832       8.07391453       3.17534381      -0.00000031      -0.00000070      -0.00000089 
H       6.09459861       7.60382506       2.36289883       0.00000097       0.00000025       0.00000042 
O       4.15981801       7.62997458       2.41478751      -0.00000023       0.00000002       0.00000013 
H       3.86189740       8.05532466       1.58594059      -0.00000005      -0.00000077       0.00000109 
H       3.90362718       6.68787893       2.38437814       0.00000002       0.00000135      -0.00000038 
O       3.32335409       0.67108427       0.02731502       0.00000024      -0.00000003       0.00000016 
H       3.62127704       0.24573430      -0.80153111       0.00000007       0.00000078       0.00000111 
H       3.57954640       1.61317959      -0.00309277      -0.00000002      -0.00000135      -0.00000035 
O       0.41824209       4.82161875       2.41478646      -0.00000024      -0.00000002       0.00000015 
H       0.12031432       4.39627147       1.58593996      -0.00000007       0.00000078       0.00000111 
H       0.16205505       5.76371493       2.38437981       0.00000003      -0.00000134      -0.00000035 
O       7.06493370       3.47944065       0.02731404       0.00000022       0.00000004       0.00000013 
H       7.36285785       3.90478885      -0.80153316       0.00000004      -0.00000075       0.00000109 
H       7.32112208       2.53734506      -0.00309468      -0.00000002       0.00000137      -0.00000038 
O       4.15427523       3.44186544       9.53338440      -0.00000010       0.00000006       0.00000003 
H       3.88104485       3.92337368      10.33776206       0.00000030      -0.00000066      -0.00000087 
H       5.13016891       3.45329096       9.52531744      -0.00000098       0.00000029       0.00000045 
O       3.32888490       4.85919615       7.14591030       0.00000010      -0.00000005       0.00000002 
H       3.60211654       4.37768800       7.95028735      -0.00000030       0.00000067      -0.00000088 
H       2.35299051       4.84777084       7.13784456       0.00000098      -0.00000029       0.00000044 
O       0.41267877       0.70865995       9.53338292      -0.00000010      -0.00000007       0.00000003 
H       0.13945510       0.22714941      10.33776138       0.00000029       0.00000065      -0.00000087 
H       1.38857218       0.69723999       9.52531450      -0.00000098      -0.00000031       0.00000045 
O       7.07049188       7.59240417       7.14591133       0.00000009       0.00000003       0.00000002 
H       7.34371833       8.07391453       7.95028891      -0.00000031      -0.00000070      -0.00000088 
H       6.09459862       7.60382506       7.13784393       0.00000096       0.00000025       0.00000043 
O       4.15981804       7.62997459       7.18973262      -0.00000024       0.00000002       0.00000013 
H       3.86189742       8.05532466       6.36088570      -0.00000006      -0.00000077       0.00000109 
H       3.90362721       6.68787894       7.15932326       0.00000001       0.00000135      -0.00000038 
O       3.32335411       0.67108429       4.80226014       0.00000023      -0.00000003       0.00000016 
H       3.62127706       0.24573431       3.97341400       0.00000006       0.00000077       0.00000111 
H       3.57954642       1.61317960       4.77185235      -0.00000003      -0.00000136      -0.00000035 
O       0.41824210       4.82161874       7.18973158      -0.00000024      -0.00000002       0.00000015 
H       0.12031433       4.39627147       6.36088508      -0.00000008       0.00000078       0.00000111 
H       0.16205507       5.76371492       7.15932494       0.00000002      -0.00000134      -0.00000036 
O       7.06493372       3.47944065       4.80225915       0.00000022       0.00000004       0.00000014 
H       7.36285786       3.90478885       3.97341195       0.00000003      -0.00000075       0.00000110 
H       7.32112210       2.53734505       4.77185041      -0.00000003       0.00000137      -0.00000037 
O       4.15427523       3.44186545      14.30832950      -0.00000010       0.00000006       0.00000003 
H       3.88104484       3.92337369      15.11270717       0.00000030      -0.00000067      -0.00000088 
H       5.13016891       3.45329097      14.30026254      -0.00000098       0.00000029       0.00000045 
O       3.32888490       4.85919615      11.92085541       0.00000009      -0.00000005       0.00000003 
H       3.60211654       4.37768801      12.72523246      -0.00000030       0.00000067      -0.00000088 
H       2.35299050       4.84777083      11.91278967       0.00000097      -0.00000029       0.00000044 
O       0.41267877       0.70865996      14.30832803      -0.00000010      -0.00000007       0.00000004 
H       0.13945510       0.22714940      15.11270649       0.00000029       0.00000065      -0.00000087 
H       1.38857218       0.69723998      14.30025961      -0.00000098      -0.00000030       0.00000046 
O       7.07049186       7.59240417      11.92085643       0.00000009       0.00000003       0.00000002 
H       7.34371831       8.07391453      12.72523401      -0.00000031      -0.00000070      -0.00000088 
H       6.09459861       7.60382506      11.91278904       0.00000097       0.00000026       0.00000043 
O       4.15981803       7.62997459      11.96467773      -0.00000024       0.00000002       0.00000014 
H       3.86189742       8.05532467      11.13583081      -0.00000006      -0.00000077       0.00000110 
H       3.90362720       6.68787894      11.93426836       0.00000001       0.00000135      -0.00000038 
O       3.32335413       0.67108429       9.57720525       0.00000022      -0.00000004       0.00000016 
H       3.62127708       0.24573432       8.74835912       0.00000005       0.00000076       0.00000112 
H       3.57954643       1.61317961       9.54679746      -0.00000004      -0.00000136      -0.00000034 
O       0.41824211       4.82161874      11.96467669      -0.00000025      -0.00000002       0.00000015 
H       0.12031433       4.39627146      11.13583019      -0.00000008       0.00000079       0.00000111 
H       0.16205508       5.76371491      11.93427005       0.00000002      -0.00000134      -0.00000036 
O       7.06493372       3.47944064       9.57720425       0.00000022       0.00000005       0.00000015 
H       7.36285786       3.90478884       8.74835705       0.00000003      -0.00000074       0.00000110 
H       7.32112209       2.53734504       9.54679552      -0.00000003       0.00000137      -0.00000037 
O       4.15427521       3.44186544      19.08327462      -0.00000010       0.00000006       0.00000003 
H       3.88104482       3.92337369      19.88765228       0.00000030      -0.00000067      -0.00000087 
H       5.13016889       3.45329097      19.07520766      -0.00000097       0.00000029       0.00000045 
O       3.32888491       4.85919615      16.69580053       0.00000009      -0.00000005       0.00000003 
H       3.60211654       4.37768800      17.50017757      -0.00000030       0.00000068      -0.00000088 
H       2.35299051       4.84777082      16.68773479       0.00000097      -0.00000028       0.00000044 
O       0.41267876       0.70865994      19.08327313      -0.00000010      -0.00000006       0.00000003 
H       0.13945509       0.22714939      19.88765159       0.00000030       0.00000066      -0.00000087 
H       1.38857217       0.69723996      19.07520472      -0.00000098      -0.00000030       0.00000045 
O       7.07049186       7.59240416      16.69580156       0.00000009       0.00000004       0.00000002 
H       7.34371831       8.07391453      17.50017914      -0.00000030      -0.00000069      -0.00000088 
H       6.09459860       7.60382505      16.68773417       0.00000097       0.00000027       0.00000044 
O       4.15981803       7.62997459      16.73962285      -0.00000024       0.00000002       0.00000014 
H       3.86189742       8.05532466      15.91077592      -0.00000006      -0.00000077       0.00000110 
H       3.90362720       6.68787893      16.70921348       0.00000001       0.00000135      -0.00000038 
O       3.32335413       0.67108429      14.35215037       0.00000022      -0.00000004       0.00000016 
H       3.62127709       0.24573432      13.52330423       0.00000005       0.00000076       0.00000111 
H       3.57954643       1.61317961      14.32174257      -0.00000003      -0.00000136      -0.00000035 
O       0.41824212       4.82161872      16.73962180      -0.00000025      -0.00000001       0.00000015 
H       0.12031435       4.39627144      15.91077530      -0.00000008       0.00000079       0.00000111 
H       0.16205509       5.76371490      16.70921515       0.00000001      -0.00000133      -0.00000035 
O       7.06493372       3.47944065      14.35214936       0.00000022       0.00000004       0.00000015 
H       7.36285785       3.90478884      13.52330216       0.00000003      -0.00000074       0.00000111 
H       7.32112210       2.53734505      14.32174064      -0.00000003       0.00000137      -0.00000036 
O       4.15427520       3.44186545      23.85821973      -0.00000009       0.00000006       0.00000003 
H       3.88104482       3.92337368      24.66259740       0.00000031      -0.00000067      -0.00000087 
H       5.13016888       3.45329097      23.85015278      -0.00000097       0.00000028       0.00000045 
O       3.32888488       4.85919615      21.47074565       0.00000010      -0.00000005       0.00000003 
H       3.60211652       4.37768800      22.27512269      -0.00000030       0.00000067      -0.00000088 
H       2.35299048       4.84777083      21.46267991       0.00000098      -0.00000029       0.00000044 
O       0.41267876       0.70865995      23.85821824      -0.00000010      -0.00000006       0.00000004 
H       0.13945509       0.22714939      24.66259670       0.00000030       0.00000066      -0.00000086 
H       1.38857217       0.69723997      23.85014982      -0.00000097      -0.00000030       0.00000046 
O       7.07049184       7.59240416      21.47074669       0.00000010       0.00000004       0.00000001 
H       7.34371829       8.07391452      22.27512427      -0.00000030      -0.00000069      -0.00000088 
H       6.09459858       7.60382504      21.46267930       0.00000098       0.00000027       0.00000043 
O       4.15981800       7.62997458      21.51456796      -0.00000023       0.00000003       0.00000014 
H       3.86189740       8.05532465      20.68572104      -0.00000005      -0.00000077       0.00000110 
H       3.90362716       6.68787892      21.48415858       0.00000002       0.00000135      -0.00000037 
O       3.32335412       0.67108427      19.12709548       0.00000023      -0.00000003       0.00000016 
H       3.62127708       0.24573430      18.29824935       0.00000005       0.00000077       0.00000112 
H       3.57954641       1.61317959      19.09668769      -0.00000003      -0.00000135      -0.00000034 
O       0.41824210       4.82161874      21.51456691      -0.00000024      -0.00000001       0.00000016 
H       0.12031433       4.39627145      20.68572041      -0.00000008       0.00000080       0.00000111 
H       0.16205507       5.76371491      21.48416025       0.00000002      -0.00000133      -0.00000035 
O       7.06493370       3.47944065      19.12709449       0.00000023       0.00000004       0.00000014 
H       7.36285784       3.90478884      18.29824729       0.00000004      -0.00000074       0.00000110 
H       7.32112208       2.53734505      19.09668577      -0.00000002       0.00000137      -0.00000037 
O       4.15427521       3.44186544      28.63316486      -0.00000010       0.00000006       0.00000003 
H       3.88104482       3.92337368      29.43754252       0.00000030      -0.00000067      -0.00000087 
H       5.13016889       3.45329097      28.62509790      -0.00000097       0.00000029       0.00000045 
O       3.32888488       4.85919615      26.24569077       0.00000010      -0.00000005       0.00000002 
H       3.60211652       4.37768800      27.05006782      -0.00000029       0.00000067      -0.00000088 
H       2.35299048       4.84777084      26.23762504       0.00000098      -0.00000029       0.00000044 
O       0.41267876       0.70865995      28.63316336      -0.00000010      -0.00000006       0.00000004 
H       0.13945509       0.22714939      29.43754182       0.00000030       0.00000066      -0.00000086 
H       1.38857216       0.69723998      28.62509495      -0.00000097      -0.00000030       0.00000046 
O       7.07049186       7.59240416      26.24569182       0.00000010       0.00000004       0.00000001 
H       7.34371831       8.07391452      27.05006940      -0.00000030      -0.00000069      -0.00000089 
H       6.09459860       7.60382505      26.23762442       0.00000097       0.00000026       0.00000042 
O       4.15981800       7.62997458      26.28951309      -0.00000023       0.00000003       0.00000014 
H       3.86189740       8.05532465      25.46066616      -0.00000005      -0.00000076       0.00000110 
H       3.90362717       6.68787892      26.25910372       0.00000002       0.00000136      -0.00000038 
O       3.32335410       0.67108427      23.90204059       0.00000024      -0.00000002       0.00000016 
H       3.62127706       0.24573430      23.07319446       0.00000006       0.00000078       0.00000111 
H       3.57954640       1.61317959      23.87163280      -0.00000003      -0.00000135      -0.00000035 
O       0.41824209       4.82161874      26.28951203      -0.00000024      -0.00000001       0.00000016 
H       0.12031433       4.39627146      25.46066553      -0.00000007       0.00000079       0.00000111 
H       0.16205506       5.76371491      26.25910538       0.00000003      -0.00000133      -0.00000035 
O       7.06493370       3.47944066      23.90203962       0.00000023       0.00000004       0.00000014 
H       7.36285784       3.90478885      23.07319242       0.00000004      -0.00000075       0.00000110 
H       7.32112208       2.53734506      23.87163090      -0.00000002       0.00000137      -0.00000037 
O       4.15427522      11.74296889       4.75843930      -0.00000011       0.00000007       0.00000002 
H       3.88104483      12.22447712       5.56281697       0.00000029      -0.00000064      -0.00000089 
H       5.13016889      11.75439440       4.75037234      -0.00000098       0.00000031       0.00000043 
O       3.32888489      13.16029962       2.37096522       0.00000010      -0.00000005       0.00000001 
H       3.60211653      12.67879147       3.17534226      -0.00000030       0.00000068      -0.00000089 
H       2.35299049      13.14887429       2.36289948       0.00000098      -0.00000028       0.00000042 
O       0.41267875       9.00976341       4.75843781      -0.00000010      -0.00000008       0.00000002 
H       0.13945508       8.52825287       5.56281627       0.00000030       0.00000064      -0.00000089 
H       1.38857216       8.99834344       4.75036940      -0.00000098      -0.00000031       0.00000044 
O       7.07049190      15.89350761       2.37096621       0.00000009       0.00000005       0.00000002 
H       7.34371834      16.37501796       3.17534380      -0.00000031      -0.00000067      -0.00000089 
H       6.09459864      15.90492848       2.36289882       0.00000097       0.00000029       0.00000043 
O       4.15981808      15.93107803       2.41478751      -0.00000026       0.00000001       0.00000013 
H       3.86189748      16.35642812       1.58594059      -0.00000008      -0.00000079       0.00000109 
H       3.90362721      14.98898239       2.38437814       0.00000001       0.00000133      -0.00000038 
O       3.32335409       8.97218773       0.02731504       0.00000024      -0.00000002       0.00000014 
H       3.62127705       8.54683774      -0.80153109       0.00000006       0.00000079       0.00000109 
H       3.57954640       9.91428304      -0.00309275      -0.00000003      -0.00000134      -0.00000036 
O       0.41824208      13.12272219       2.41478648      -0.00000023      -0.00000002       0.00000013 
H       0.12031429      12.69737492       1.58593999      -0.00000006       0.00000078       0.00000109 
H       0.16205506      14.06481837       2.38437984       0.00000003      -0.00000134      -0.00000038 
O       7.06493369      11.78054409       0.02731405       0.00000022       0.00000003       0.00000013 
H       7.36285783      12.20589230      -0.80153315       0.00000004      -0.00000077       0.00000109 
H       7.32112209      10.83844850      -0.00309469      -0.00000004       0.00000135      -0.00000038 
O       4.15427522      11.74296890       9.53338439      -0.00000011       0.00000007       0.00000001 
H       3.88104483      12.22447712      10.33776206       0.00000030      -0.00000064      -0.00000089 
H       5.13016890      11.75439441       9.52531744      -0.00000098       0.00000030       0.00000043 
O       3.32888487      13.16029961       7.14591032       0.00000010      -0.00000005       0.00000001 
H       3.60211651      12.67879146       7.95028737      -0.00000030       0.00000068      -0.00000089 
H       2.35299048      13.14887428       7.13784458       0.00000098      -0.00000028       0.00000042 
O       0.41267877       9.00976342       9.53338292      -0.00000011      -0.00000008       0.00000003 
H       0.13945510       8.52825287      10.33776138       0.00000029       0.00000063      -0.00000088 
H       1.38857218       8.99834345       9.52531450      -0.00000099      -0.00000032       0.00000044 
O       7.07049188      15.89350761       7.14591133       0.00000010       0.00000006       0.00000002 
H       7.34371832      16.37501796       7.95028891      -0.00000030      -0.00000067      -0.00000089 
H       6.09459862      15.90492847       7.13784394       0.00000097       0.00000029       0.00000043 
O       4.15981805      15.93107802       7.18973263      -0.00000025       0.00000002       0.00000014 
H       3.86189745      16.35642811       6.36088571      -0.00000007      -0.00000079       0.00000109 
H       3.90362719      14.98898237       7.15932325       0.00000002       0.00000134      -0.00000037 
O       3.32335409       8.97218772       4.80226017       0.00000023      -0.00000002       0.00000014 
H       3.62127705       8.54683774       3.97341404       0.00000006       0.00000078       0.00000109 
H       3.57954640       9.91428304       4.77185238      -0.00000004      -0.00000134      -0.00000037 
O       0.41824207      13.12272219       7.18973158      -0.00000023      -0.00000002       0.00000014 
H       0.12031428      12.69737492       6.36088508      -0.00000005       0.00000078       0.00000110 
H       0.16205506      14.06481837       7.15932493       0.00000003      -0.00000134      -0.00000037 
O       7.06493370      11.78054408       4.80225915       0.00000022       0.00000004       0.00000013 
H       7.36285784      12.20589229       3.97341196       0.00000003      -0.00000076       0.00000109 
H       7.32112209      10.83844849       4.77185043      -0.00000004       0.00000136      -0.00000038 
O       4.15427520      11.74296890      14.30832949      -0.00000010       0.00000007       0.00000002 
H       3.88104481      12.22447713      15.11270716       0.00000031      -0.00000065      -0.00000088 
H       5.13016888      11.75439442      14.30026254      -0.00000097       0.00000029       0.00000044 
O       3.32888488      13.16029960      11.92085542       0.00000010      -0.00000004       0.00000001 
H       3.60211652      12.67879145      12.72523247      -0.00000030       0.00000068      -0.00000089 
H       2.35299049      13.14887426      11.91278968       0.00000098      -0.00000027       0.00000043 
O       0.41267877       9.00976341      14.30832802      -0.00000011      -0.00000008       0.00000003 
H       0.13945510       8.52825287      15.11270649       0.00000029       0.00000063      -0.00000089 
H       1.38857218       8.99834344      14.30025961      -0.00000099      -0.00000032       0.00000044 
O       7.07049187      15.89350761      11.92085645       0.00000010       0.00000006       0.00000001 
H       7.34371831      16.37501796      12.72523404      -0.00000030      -0.00000066      -0.00000089 
H       6.09459861      15.90492847      11.91278906       0.00000098       0.00000029       0.00000043 
O       4.15981803      15.93107801      11.96467773      -0.00000024       0.00000002       0.00000014 
H       3.86189743      16.35642810      11.13583081      -0.00000007      -0.00000078       0.00000110 
H       3.90362718      14.98898236      11.93426835       0.00000003       0.00000134      -0.00000037 
O       3.32335411       8.97218774       9.57720527       0.00000023      -0.00000003       0.00000014 
H       3.62127707       8.54683776       8.74835914       0.00000005       0.00000078       0.00000109 
H       3.57954642       9.91428306       9.54679747      -0.00000004      -0.00000135      -0.00000036 
O       0.41824209      13.12272217      11.96467668      -0.00000024      -0.00000001       0.00000015 
H       0.12031430      12.69737490      11.13583018      -0.00000006       0.00000079       0.00000111 
H       0.16205508      14.06481835      11.93427004       0.00000002      -0.00000134      -0.00000036 
O       7.06493370      11.78054409       9.57720425       0.00000022       0.00000003       0.00000014 
H       7.36285785      12.20589230       8.74835706       0.00000003      -0.00000077       0.00000109 
H       7.32112209      10.83844850       9.54679553      -0.00000004       0.00000136      -0.00000037 
O       4.15427519      11.74296890      19.08327460      -0.00000009       0.00000007       0.00000003 
H       3.88104480      12.22447713      19.88765227       0.00000031      -0.00000065      -0.00000088 
H       5.13016887      11.75439442      19.07520766      -0.00000097       0.00000029       0.00000044 
O       3.32888488      13.16029960      16.69580052       0.00000010      -0.00000004       0.00000002 
H       3.60211653      12.67879145      17.50017757      -0.00000030       0.00000068      -0.00000088 
H       2.35299049      13.14887427      16.68773479       0.00000098      -0.00000027       0.00000043 
O       0.41267877       9.00976342      19.08327314      -0.00000011      -0.00000008       0.00000003 
H       0.13945510       8.52825287      19.88765161       0.00000030       0.00000063      -0.00000088 
H       1.38857218       8.99834344      19.07520473      -0.00000098      -0.00000032       0.00000044 
O       7.07049186      15.89350762      16.69580156       0.00000010       0.00000005       0.00000001 
H       7.34371830      16.37501796      17.50017915      -0.00000030      -0.00000066      -0.00000090 
H       6.09459860      15.90492848      16.68773417       0.00000098       0.00000029       0.00000042 
O       4.15981802      15.93107801      16.73962283      -0.00000024       0.00000002       0.00000015 
H       3.86189742      16.35642810      15.91077591      -0.00000006      -0.00000078       0.00000110 
H       3.90362717      14.98898237      16.70921345       0.00000003       0.00000134      -0.00000036 
O       3.32335411       8.97218774      14.35215037       0.00000023      -0.00000003       0.00000015 
H       3.62127707       8.54683775      13.52330424       0.00000005       0.00000078       0.00000110 
H       3.57954642       9.91428305      14.32174257      -0.00000004      -0.00000135      -0.00000035 
O       0.41824210      13.12272217      16.73962180      -0.00000024      -0.00000001       0.00000015 
H       0.12031432      12.69737489      15.91077530      -0.00000007       0.00000079       0.00000111 
H       0.16205508      14.06481835      16.70921515       0.00000002      -0.00000133      -0.00000037 
O       7.06493367      11.78054411      14.35214936       0.00000023       0.00000002       0.00000014 
H       7.36285782      12.20589231      13.52330217       0.00000005      -0.00000077       0.00000109 
H       7.32112206      10.83844852      14.32174064      -0.00000002       0.00000135      -0.00000038 
O       4.15427520      11.74296889      23.85821974      -0.00000010       0.00000007       0.00000003 
H       3.88104481      12.22447713      24.66259740       0.00000031      -0.00000065      -0.00000088 
H       5.13016888      11.75439441      23.85015279      -0.00000097       0.00000030       0.00000044 
O       3.32888489      13.16029961      21.47074564       0.00000010      -0.00000005       0.00000002 
H       3.60211654      12.67879146      22.27512269      -0.00000030       0.00000068      -0.00000088 
H       2.35299050      13.14887428      21.46267991       0.00000098      -0.00000028       0.00000043 
O       0.41267876       9.00976341      23.85821826      -0.00000010      -0.00000008       0.00000002 
H       0.13945508       8.52825287      24.66259673       0.00000030       0.00000064      -0.00000089 
H       1.38857216       8.99834343      23.85014986      -0.00000098      -0.00000031       0.00000043 
O       7.07049187      15.89350762      21.47074668       0.00000010       0.00000005       0.00000001 
H       7.34371832      16.37501797      22.27512427      -0.00000031      -0.00000067      -0.00000090 
H       6.09459861      15.90492849      21.46267929       0.00000097       0.00000028       0.00000042 
O       4.15981804      15.93107803      21.51456795      -0.00000024       0.00000001       0.00000015 
H       3.86189744      16.35642812      20.68572103      -0.00000007      -0.00000079       0.00000110 
H       3.90362719      14.98898238      21.48415857       0.00000002       0.00000133      -0.00000036 
O       3.32335411       8.97218774      19.12709548       0.00000023      -0.00000003       0.00000015 
H       3.62127707       8.54683776      18.29824935       0.00000005       0.00000078       0.00000110 
H       3.57954642       9.91428305      19.09668768      -0.00000004      -0.00000135      -0.00000035 
O       0.41824211      13.12272217      21.51456693      -0.00000025      -0.00000001       0.00000014 
H       0.12031433      12.69737490      20.68572043      -0.00000008       0.00000079       0.00000110 
H       0.16205509      14.06481834      21.48416029       0.00000001      -0.00000133      -0.00000037 
O       7.06493365      11.78054412      19.12709449       0.00000024       0.00000002       0.00000014 
H       7.36285780      12.20589233      18.29824730       0.00000006      -0.00000078       0.00000109 
H       7.32112205      10.83844853      19.09668576      -0.00000002       0.00000134      -0.00000037 
O       4.15427521      11.74296890      28.63316487      -0.00000010       0.00000007       0.00000002 
H       3.88104482      12.22447712      29.43754254       0.00000030      -0.00000064      -0.00000089 
H       5.13016889      11.75439441      28.62509792      -0.00000098       0.00000030       0.00000043 
O       3.32888488      13.16029961      26.24569078       0.00000010      -0.00000005       0.00000002 
H       3.60211653      12.67879147      27.05006782      -0.00000030       0.00000067      -0.00000088 
H       2.35299048      13.14887428      26.23762505       0.00000098      -0.00000028       0.00000043 
O       0.41267875       9.00976341      28.63316339      -0.00000010      -0.00000008       0.00000002 
H       0.13945507       8.52825287      29.43754185       0.00000030       0.00000064      -0.00000088 
H       1.38857216       8.99834343      28.62509498      -0.00000098      -0.00000031       0.00000044 
O       7.07049187      15.89350762      26.24569179       0.00000009       0.00000005       0.00000001 
H       7.34371832      16.37501797      27.05006937      -0.00000031      -0.00000067      -0.00000089 
H       6.09459862      15.90492849      26.23762440       0.00000097       0.00000028       0.00000043 
O       4.15981806      15.93107803      26.28951307      -0.00000025       0.00000001       0.00000014 
H       3.86189746      16.35642813      25.46066616      -0.00000008      -0.00000080       0.00000110 
H       3.90362719      14.98898239      26.25910369       0.00000002       0.00000133      -0.00000036 
O       3.32335410       8.97218772      23.90204061       0.00000023      -0.00000002       0.00000015 
H       3.62127705       8.54683774      23.07319448       0.00000006       0.00000079       0.00000110 
H       3.57954641       9.91428304      23.87163281      -0.00000003      -0.00000134      -0.00000036 