4806
Lattice="33.20708211649717 7.948787344364e-310 0.0 7.9805740821245e-310 33.047413192971305 0.0 0.0 0.0 33.18257968104335" Properties=species:S:1:pos:R:3:forces:R:3 energy=-750.504800169 stress="-0.018744740731120417 -4.4811814e-316 -0.0 -4.4811814e-316 -0.018742093879431147 -0.0 -0.0 -0.0 -0.01874843132789483" pbc="T T T"
O       9.43609581       3.15729092      -0.02156721       0.00000003       0.00000078      -0.00000056 
H      10.41441734       3.28535950       0.00601442       0.00000009      -0.00000011      -0.00000046 
H       9.24828977       2.66730689      -0.85646731      -0.00000033       0.00000015      -0.00000008 
O       3.11362644       0.08892141       1.68607195      -0.00000026       0.00000256       0.00000125 
H       2.62544388       0.91159847       1.93989868      -0.00000088       0.00000221       0.00000107 
H       2.52427416      -0.67647330       1.90040592       0.00000025       0.00000225       0.00000142 
O      -0.28080589       2.85834939       5.71272553      -0.00000207       0.00000270       0.00000151 
H       0.54233563       3.40013198       5.68883819      -0.00000216       0.00000269       0.00000100 
H      -1.07317258       3.43935815       5.81773483      -0.00000220       0.00000257       0.00000067 
O       7.36163549       3.39492336       7.43109427      -0.00000191      -0.00000200      -0.00000024 
H       7.86258839       3.69376872       6.63449156      -0.00000239      -0.00000144      -0.00000028 
H       6.58326958       2.85302840       7.15504008      -0.00000220      -0.00000157      -0.00000019 
O       1.85929345       2.26136222       2.28788204      -0.00000241       0.00000149       0.00000110 
H       2.50838384       2.77989599       2.82118168      -0.00000239       0.00000175       0.00000075 
H       1.09072588       2.00864791       2.86012763      -0.00000209       0.00000132       0.00000140 
O      -0.22618634       7.93830027       5.49044754       0.00000128       0.00000202       0.00000130 
H       0.55643131       7.33878655       5.57033093       0.00000121       0.00000188       0.00000072 
H      -1.04252241       7.38957874       5.45600941       0.00000147       0.00000200      -0.00000053 
O       1.78627287       8.85753999       1.97403467      -0.00000195       0.00000059       0.00000152 
H       1.03006406       9.17555014       2.51704708      -0.00000186       0.00000123       0.00000119 
H       1.45063101       8.28699921       1.24131771      -0.00000197       0.00000078       0.00000146 
O       5.36873759       8.81688032       4.51182024      -0.00000075       0.00000005       0.00000029 
H       5.35693479       9.69157705       4.06051242      -0.00000009       0.00000025       0.00000066 
H       5.48513855       8.92975434       5.48842782      -0.00000059      -0.00000023       0.00000021 
O       6.87286016       5.28598632       9.11051811      -0.00000121      -0.00000189      -0.00000044 
H       7.07386248       4.52295971       8.51844765      -0.00000144      -0.00000231       0.00000006 
H       7.34694054       5.21993808       9.97063800       0.00000074      -0.00000003      -0.00000146 
O       8.86244710       2.15464165       9.09415533       0.00000049      -0.00000172      -0.00000233 
H       8.30859252       2.64821516       8.44178285      -0.00000038      -0.00000199      -0.00000177 
H       9.20789411       2.77185380       9.77916230      -0.00000008      -0.00000163      -0.00000215 
O       3.57928774       3.55614408       3.68880314      -0.00000176       0.00000178      -0.00000013 
H       4.34268605       2.97824137       3.91612787      -0.00000206       0.00000135      -0.00000037 
H       3.91259475       4.36658499       3.23695758      -0.00000124       0.00000124      -0.00000063 
O       1.97152109       4.09026541       5.65967153      -0.00000144       0.00000181       0.00000029 
H       2.59049155       3.87392939       4.92529846      -0.00000165       0.00000191       0.00000014 
H       2.47412057       3.90161207       6.48879543      -0.00000141       0.00000116       0.00000010 
O       3.24974542       7.62387340       3.69483070      -0.00000011      -0.00000011      -0.00000061 
H       2.71853125       8.12890760       3.03195430      -0.00000112       0.00000013       0.00000045 
H       4.00374283       8.17158940       4.02263738      -0.00000053       0.00000025      -0.00000037 
O       3.36900000       3.51999374       7.75702646      -0.00000146       0.00000012      -0.00000031 
H       4.08233597       2.96087891       7.37603145      -0.00000176      -0.00000004      -0.00000055 
H       3.79652854       4.30410971       8.18299323      -0.00000117      -0.00000044       0.00000040 
O       7.52176258      -0.36169045       1.26916560      -0.00000101       0.00000054       0.00000092 
H       8.03512401       0.42588960       1.57531318      -0.00000058       0.00000055       0.00000002 
H       8.00292517      -1.15289695       1.60790147      -0.00000086       0.00000074       0.00000107 
O       5.56923951       2.00577477       4.30190153      -0.00000214       0.00000113      -0.00000052 
H       6.32412603       2.57058416       4.02265862      -0.00000184       0.00000056      -0.00000072 
H       5.55288646       1.24761457       3.67225666      -0.00000168       0.00000038       0.00000038 
O       9.03100888       9.06578266       2.32072402      -0.00000181       0.00000252      -0.00000007 
H       9.83395034       9.37508350       2.80729157      -0.00000117       0.00000193      -0.00000083 
H       8.47820154       9.83348741       2.04689330      -0.00000116       0.00000301       0.00000007 
O       5.53954639       8.86199302       7.07576520      -0.00000013       0.00000008       0.00000043 
H       4.70461967       8.35781582       7.24621481       0.00000043      -0.00000073       0.00000071 
H       6.28422508       8.29086415       7.39520773       0.00000035       0.00000072       0.00000033 
O       8.89027496       4.19462582       5.51167875      -0.00000238      -0.00000137      -0.00000006 
H       8.42185418       3.98623188       4.66926997      -0.00000191      -0.00000176      -0.00000019 
H       8.91428707       5.17882491       5.58622069      -0.00000201      -0.00000127      -0.00000113 
O       3.06157674      -0.04537503       9.85316431      -0.00000021      -0.00000049       0.00000063 
H       2.55144854      -0.83198233       9.54159162      -0.00000022      -0.00000059       0.00000101 
H       3.09542152      -0.07197611      10.84194581       0.00000043      -0.00000021       0.00000057 
O       5.26391239       1.99268147       6.84877965      -0.00000247      -0.00000054      -0.00000073 
H       5.26486891       1.20372972       7.44225438      -0.00000231      -0.00000086      -0.00000119 
H       5.37117909       1.75654512       5.90312021      -0.00000226       0.00000020      -0.00000086 
O       3.39378279       7.57137977       7.63633091       0.00000092      -0.00000082       0.00000153 
H       2.79292972       8.14384131       8.17720554       0.00000237       0.00000024       0.00000179 
H       2.85039308       7.20367312       6.89657907       0.00000047       0.00000043       0.00000130 
O       9.60153673       7.44993255       0.36744587      -0.00000087       0.00000203       0.00000058 
H       9.04100060       6.64311586       0.27926265      -0.00000061       0.00000196       0.00000006 
H       9.33293601       7.99881875       1.13965010      -0.00000174       0.00000215       0.00000013 
O       8.84427017       9.16229042       9.31987744       0.00000683      -0.00001152      -0.00000123 
H       9.19858363       8.62329807      10.06352593       0.00000698      -0.00000937       0.00000028 
H       8.27983735       9.87323889       9.70165827       0.00000057      -0.00001537      -0.00000347 
O      -0.20400275       1.47100616       3.56991557      -0.00000162       0.00000126       0.00000235 
H      -0.34659060       2.04478659       4.36055641      -0.00000157       0.00000163       0.00000201 
H      -0.92368050       1.64396875       2.91570986      -0.00000198       0.00000080       0.00000265 
O       8.76148377       1.74952001       2.02247406       0.00000066       0.00000018      -0.00000075 
H       9.09860143       2.22275845       1.22411773       0.00000047       0.00000058      -0.00000054 
H       9.52493167       1.50330046       2.59569520       0.00000058       0.00000011      -0.00000077 
O       8.80664158       6.76668808       5.72364227      -0.00000085      -0.00000146      -0.00000256 
H       8.23768085       7.07483827       4.97383440      -0.00000069      -0.00000089      -0.00000239 
H       8.34898554       7.01494725       6.56061199      -0.00000127      -0.00000225      -0.00000250 
O       8.13550194       5.37544955      -0.05659736       0.00000077       0.00000120      -0.00000070 
H       8.62587539       4.51775562      -0.08529934       0.00000075       0.00000121      -0.00000080 
H       7.55329591       5.43486420      -0.85218597       0.00000033       0.00000092      -0.00000035 
O      -0.31547594       9.37519829       7.64138089       0.00000278      -0.00000136       0.00000370 
H      -1.07183861       9.06703938       8.19068576       0.00000184      -0.00000068       0.00000278 
H      -0.30260090       8.82165865       6.82512908       0.00000242      -0.00000030       0.00000304 
O       7.55934582       7.46090029       7.88628630      -0.00000068      -0.00000342      -0.00000258 
H       7.34863713       6.64734041       8.40020726      -0.00000188      -0.00000368      -0.00000353 
H       8.03688472       8.08989838       8.47783598       0.00000431      -0.00000729      -0.00000237 
O       5.43136331      -0.02579021       2.71469723      -0.00000068      -0.00000033       0.00000160 
H       4.56050981       0.00601233       2.24606648      -0.00000048       0.00000104       0.00000139 
H       6.16201829      -0.15950971       2.06458760      -0.00000057       0.00000037       0.00000161 
O       0.02753638       1.14970955       7.62350671      -0.00000105       0.00000034      -0.00000068 
H       0.75971765       1.51436098       8.17509912      -0.00000090      -0.00000030      -0.00000053 
H      -0.07843484       1.76211537       6.85870798      -0.00000161       0.00000147       0.00000038 
O       1.96754159       6.66362582       5.68883249       0.00000082       0.00000167       0.00000064 
H       2.42786447       6.99962587       4.88015880       0.00000073       0.00000091       0.00000026 
H       1.94514611       5.67668865       5.64705439      -0.00000002       0.00000168       0.00000086 
O       4.22601974       5.66473698       2.34425850       0.00000025       0.00000056      -0.00000122 
H       3.93655566       6.45985764       2.85435374       0.00000040       0.00000059      -0.00000128 
H       5.19526083       5.71543487       2.18982079       0.00000026       0.00000015      -0.00000112 
O       4.31608155       5.57999521       8.98049692      -0.00000109      -0.00000147       0.00000173 
H       4.02754781       6.38584023       8.48439731      -0.00000041      -0.00000121       0.00000180 
H       5.29453906       5.55064636       9.06505000      -0.00000112      -0.00000196       0.00000165 
O       1.81011832       2.11504951       9.24170239      -0.00000049      -0.00000094      -0.00000046 
H       2.46073239       2.65190419       8.72560865      -0.00000077      -0.00000062      -0.00000044 
H       2.28543538       1.28619030       9.49942023      -0.00000024      -0.00000068      -0.00000026 
O      -0.10141082       9.62945448       3.56969897      -0.00000149       0.00000224       0.00000129 
H      -0.11360186      10.58651139       3.80620351      -0.00000168       0.00000239       0.00000063 
H      -0.10546236       9.05469513       4.36980151      -0.00000000       0.00000275       0.00000162 
O       1.11160083       7.33662013      -0.01039083      -0.00000112       0.00000078       0.00000093 
H       1.68055168       6.53707687       0.09662592      -0.00000069       0.00000107       0.00000042 
H       0.16173104       7.09804092       0.02411299      -0.00000086       0.00000001       0.00000081 
O       1.20988099       3.49361154       0.12606431      -0.00000230       0.00000183       0.00000130 
H       1.40870203       3.01316414       0.96660483      -0.00000254       0.00000192       0.00000137 
H       1.42428333       2.85610107      -0.60963991      -0.00000161       0.00000188       0.00000155 
O       7.52784232       3.49658002       3.44462373      -0.00000098      -0.00000074      -0.00000096 
H       7.24280834       4.27932950       2.91989347      -0.00000015      -0.00000042      -0.00000088 
H       8.00627558       2.88122374       2.83776553      -0.00000038      -0.00000048      -0.00000068 
O       7.46677070       7.54778364       3.67657953      -0.00000116       0.00000070      -0.00000141 
H       8.05860393       8.19922558       3.22986706      -0.00000162       0.00000151      -0.00000075 
H       6.66006554       8.03827720       3.96465602      -0.00000116       0.00000008      -0.00000048 
O       6.78847103       5.61032868       2.11914016       0.00000031      -0.00000023      -0.00000084 
H       7.26786564       5.53423778       1.26002372       0.00000051      -0.00000000      -0.00000071 
H       7.12042640       6.39547707       2.61491801      -0.00000026       0.00000006      -0.00000105 
O       1.79726137       8.97319101       9.07871537       0.00000393       0.00000196       0.00000247 
H       2.24564297       9.78413534       9.42193877       0.00000282       0.00000215       0.00000292 
H       1.01639127       9.21286780       8.52951687       0.00000326       0.00000118       0.00000315 
O       5.27598382       0.07272954       8.54994030      -0.00000132      -0.00000074      -0.00000109 
H       6.08018138       0.09022232       9.12294072      -0.00000111      -0.00000009      -0.00000145 
H       4.47427816       0.01539990       9.12362998      -0.00000094      -0.00000065      -0.00000060 
O       2.83910600       5.44341202       0.20053261      -0.00000092       0.00000069      -0.00000037 
H       3.37710395       5.49509705       1.02727332      -0.00000037       0.00000060      -0.00000077 
H       2.29414620       4.61575997       0.20368197      -0.00000153       0.00000112       0.00000037 
O       7.48697513       0.09500647       9.84937583      -0.00000148       0.00000035      -0.00000100 
H       7.41367294       0.02506687      10.82954986      -0.00000191       0.00000087      -0.00000103 
H       7.96554520       0.93705514       9.65465153      -0.00000062      -0.00000023      -0.00000132 
O      20.85966062       3.54751494      -0.04369894      -0.00000206      -0.00000468       0.00000205 
H      20.17967714       4.25876631       0.02099124      -0.00000147      -0.00000402      -0.00000012 
H      20.60761684       2.99714935      -0.82289836      -0.00000041      -0.00000447       0.00000149 
O      14.19505501       0.10229817       1.44620907       0.00000090       0.00000069       0.00000010 
H      13.71237109      -0.73443659       1.65702681       0.00000067       0.00000091       0.00000047 
H      13.61777599       0.84960319       1.74813575       0.00000114       0.00000076       0.00000027 
O      10.93495635       2.65246669       5.63517981      -0.00000096       0.00000058      -0.00000047 
H      10.17237970       3.27940917       5.62190272      -0.00000169      -0.00000032       0.00000019 
H      10.88799075       2.12831931       6.47011818      -0.00000016      -0.00000036      -0.00000108 
O      18.48121505       3.39753926       7.75287112       0.00000137      -0.00000002       0.00000355 
H      18.13442126       4.18601366       8.23185551       0.00000033       0.00000023       0.00000230 
H      19.07205667       3.74120525       7.04547830       0.00000068      -0.00000010       0.00000296 
O      12.73461129       2.07422075       2.26638004       0.00000042       0.00000007       0.00000073 
H      12.00347463       1.72180228       2.82484940       0.00000038      -0.00000028       0.00000039 
H      13.38288906       2.52441195       2.85703881      -0.00000021       0.00000056       0.00000097 
O      10.92864193       8.18831708       5.74434935      -0.00000115      -0.00000094      -0.00000372 
H      10.09365578       7.66057292       5.72525837      -0.00000097      -0.00000120      -0.00000304 
H      10.84251225       8.82390181       6.48814917       0.00000068      -0.00000272      -0.00000196 
O      13.05856133       9.04102457       2.01064149       0.00000066       0.00000108       0.00000025 
H      13.58315142       9.81476544       1.68485692       0.00000191      -0.00000001       0.00000001 
H      12.72615533       8.49729572       1.25913037       0.00000047       0.00000076       0.00000062 
O      16.40529538       8.88131923       4.24475418       0.00000229      -0.00000405      -0.00000158 
H      15.61442929       8.33645830       4.01638580       0.00000197      -0.00000360      -0.00000149 
H      17.19670071       8.31095628       4.06245066       0.00000180      -0.00000486      -0.00000068 
O      17.65449841       5.52278336       8.99681253      -0.00000219       0.00000062       0.00000046 
H      16.66939587       5.53634241       9.03629149      -0.00000220      -0.00000064      -0.00000062 
H      17.92376576       6.27015069       8.42035295      -0.00000286       0.00000105       0.00000081 
O      19.79234873       1.82382652       9.33617972       0.00000039       0.00000021       0.00000442 
H      19.29240852       2.41410249       8.72350984       0.00000061       0.00000063       0.00000472 
H      20.58208065       1.50784083       8.83154367       0.00000072       0.00000111       0.00000445 
O      14.48524245       3.29173756       3.71139888      -0.00000089       0.00000152       0.00000114 
H      15.30086482       2.78480298       3.94516883      -0.00000097       0.00000182       0.00000194 
H      14.02700872       3.55398935       4.54293282      -0.00000129       0.00000193       0.00000074 
O      13.09955188       4.04815172       5.75828955      -0.00000143       0.00000123       0.00000108 
H      13.59073309       3.75699117       6.56009491      -0.00000138      -0.00000079       0.00000020 
H      12.26800380       3.51624938       5.73129430      -0.00000164       0.00000168       0.00000015 
O      14.35802635       7.46481043       3.54712171       0.00000048      -0.00000107      -0.00000150 
H      13.75737332       7.16323448       4.26769171       0.00000100      -0.00000061      -0.00000092 
H      13.85487915       8.07238552       2.94851578       0.00000060       0.00000009      -0.00000035 
O      14.49566074       3.23163887       7.79427667      -0.00000065      -0.00000294      -0.00000096 
H      13.90669018       2.70994973       8.39107652      -0.00000046      -0.00000266      -0.00000057 
H      15.22631008       2.67300317       7.44061012       0.00000030      -0.00000258       0.00000048 
O      18.52001184       0.15132795       1.18557595      -0.00000090      -0.00000267       0.00000289 
H      18.46814648       0.14013062       0.20451958      -0.00000146      -0.00000206       0.00000296 
H      19.02622527       0.95523527       1.44426398      -0.00000057      -0.00000295       0.00000307 
O      16.62550963       1.94169212       4.26954083      -0.00000126       0.00000154       0.00000210 
H      17.41816302       2.48952519       4.06372020      -0.00000107       0.00000118       0.00000201 
H      16.61417052       1.16303932       3.66145390      -0.00000138       0.00000125       0.00000251 
O      19.80999178       8.75550919       2.02884395      -0.00000215      -0.00000572      -0.00000360 
H      20.15759589       8.22902171       1.27648953      -0.00000078      -0.00000466      -0.00000365 
H      19.29112038       9.51644017       1.68214977      -0.00000116      -0.00000487      -0.00000310 
O      16.35960360       8.83205986       6.83172381      -0.00000008       0.00000569      -0.00000113 
H      15.55293806       8.32138341       7.07802051       0.00000034       0.00000510      -0.00000100 
H      16.34767201       8.92013944       5.84998663       0.00000099       0.00000296      -0.00000125 
O      20.02739649       4.12166905       5.78422166      -0.00000113       0.00000114       0.00000177 
H      20.79441359       3.50361779       5.79370463      -0.00000173       0.00000045       0.00000095 
H      20.30221668       5.06157898       5.75242552      -0.00000028       0.00000089       0.00000302 
O      14.43078722      -0.00797138       9.91010624       0.00000049      -0.00000275      -0.00000239 
H      15.22363605       0.01457674       9.31571240       0.00000067      -0.00000270      -0.00000202 
H      13.85572213       0.75656007       9.68007029       0.00000062      -0.00000261      -0.00000207 
O      16.53272664       1.94271515       6.85607803       0.00000200      -0.00000040       0.00000180 
H      16.57134863       1.80906287       5.88305655       0.00000146       0.00000111       0.00000154 
H      17.29342547       2.51357490       7.11027425       0.00000170      -0.00000037       0.00000255 
O      14.29439628       7.45050039       7.58129788       0.00000231       0.00000216      -0.00000196 
H      13.79733616       7.11197640       6.80080908       0.00000069       0.00000291      -0.00000120 
H      13.66588291       8.03263366       8.07349587       0.00000339       0.00000113       0.00000070 
O      20.66385609       7.29844658       0.04247090       0.00000227      -0.00000334      -0.00000320 
H      20.49000261       7.92731171      -0.69626697       0.00000179      -0.00000268      -0.00000246 
H      21.61996599       7.08355372       0.02530008       0.00000243      -0.00000259      -0.00000277 
O      20.12816011       8.82702102       9.02779552      -0.00000257       0.00000154       0.00000032 
H      19.51014651       8.34420244       8.42855162      -0.00000281       0.00000147       0.00000060 
H      20.91227345       9.11048441       8.50042478      -0.00000299       0.00000175      -0.00000010 
O      10.71872185       1.12878526       3.58332521       0.00000003      -0.00000014       0.00000003 
H      10.74810369       1.61094234       4.44236933      -0.00000031       0.00000041      -0.00000030 
H      10.82701491       0.15906766       3.71073512      -0.00000025      -0.00000002       0.00000082 
O      19.98792880       2.15617017       1.99123689      -0.00000029      -0.00000354       0.00000324 
H      20.35234282       2.68805549       1.24774750      -0.00000123      -0.00000376       0.00000265 
H      19.50234173       2.76127224       2.60042081       0.00000001      -0.00000331       0.00000320 
O      20.05232540       6.67979405       5.62952385      -0.00000040       0.00000128       0.00000360 
H      19.50543758       6.88788842       4.83861705       0.00000051      -0.00000165       0.00000231 
H      20.79494182       7.33209782       5.62022082      -0.00000098       0.00000183       0.00000252 
O      19.00521102       5.33629670       0.22479911       0.00000018      -0.00000129      -0.00000353 
H      19.59835324       6.11693807       0.11689181       0.00000141      -0.00000230      -0.00000346 
H      18.47559818       5.25858393      -0.60015484      -0.00000016      -0.00000048      -0.00000336 
O      10.73092654       9.87399421       7.69947374       0.00000546      -0.00000572       0.00000040 
H      10.78454244      10.84440859       7.54462779       0.00000613      -0.00000574       0.00000071 
H       9.97847874       9.70789407       8.31466783       0.00000569      -0.00000631       0.00000049 
O      18.50191821       7.50670935       7.52993075      -0.00000304       0.00000192       0.00000118 
H      17.71425218       7.98669518       7.19451339      -0.00000204       0.00000329       0.00000077 
H      19.04014399       7.19657477       6.76330830      -0.00000250       0.00000195       0.00000162 
O      16.44144013      -0.06751387       2.67462433      -0.00000089       0.00000047       0.00000347 
H      17.16326887       0.02358496       2.01210679      -0.00000047      -0.00000100       0.00000376 
H      15.57553768       0.01489061       2.20166177      -0.00000028       0.00000056       0.00000241 
O      10.93556305       1.28554258       7.80799491       0.00000043      -0.00000215      -0.00000207 
H      10.11017400       1.52321292       8.28976150       0.00000040      -0.00000213      -0.00000220 
H      10.95315046       0.30606079       7.68410428       0.00000008      -0.00000204      -0.00000247 
O      12.95513940       6.60552281       5.53419436       0.00000052       0.00000133      -0.00000032 
H      12.86788127       5.63079391       5.63338329       0.00000046       0.00000148       0.00000051 
H      12.09945410       7.06135549       5.67342674      -0.00000001       0.00000103      -0.00000226 
O      14.97984312       5.35098203       2.22468010      -0.00000014      -0.00000091      -0.00000186 
H      14.71924345       6.16628016       2.72412233       0.00000044      -0.00000051      -0.00000233 
H      14.80002962       4.58408155       2.81791674      -0.00000070      -0.00000023      -0.00000121 
O      15.06445256       5.43203079       9.00697712      -0.00000219      -0.00000093      -0.00000394 
H      14.88335951       4.58926892       8.52524396      -0.00000173      -0.00000077      -0.00000421 
H      14.72619070       6.18054262       8.45934813      -0.00000006      -0.00000022      -0.00000428 
O      12.87874622       1.98502364       9.35697023      -0.00000026      -0.00000294      -0.00000079 
H      12.08365144       1.71544437       8.83637519       0.00000003      -0.00000285      -0.00000119 
H      12.61300798       2.48554839      10.16421899      -0.00000069      -0.00000340      -0.00000064 
O      11.15817758       9.68101189       3.66123388      -0.00000073       0.00000162      -0.00000157 
H      11.15276133       9.07653561       4.44227621      -0.00000129       0.00000089      -0.00000216 
H      11.91710093       9.46200752       3.06854821      -0.00000023       0.00000198      -0.00000104 
O      12.16548204       7.47655955       0.15118583      -0.00000058       0.00000020       0.00000180 
H      11.20459391       7.31193503       0.27579606      -0.00000061       0.00000088       0.00000205 
H      12.64440677       6.61124701       0.13736014      -0.00000130      -0.00000017       0.00000105 
O      12.00602686       3.29883792       0.09253903      -0.00000003      -0.00000102       0.00000020 
H      12.27209319       2.70185341      -0.64768236      -0.00000020      -0.00000118       0.00000033 
H      12.25023644       2.85194840       0.93461027       0.00000014      -0.00000060       0.00000032 
O      18.61054191       3.51072850       3.69503622       0.00000014      -0.00000075       0.00000154 
H      19.14134571       3.82369039       4.46512548      -0.00000059       0.00000078       0.00000140 
H      18.18741047       4.27291252       3.23751341       0.00000054      -0.00000198      -0.00000067 
O      18.43854580       7.39567392       3.73249317       0.00000151      -0.00000595      -0.00000082 
H      18.05350050       6.64465719       3.22329988       0.00000091      -0.00000562      -0.00000062 
H      18.95385410       7.90597714       3.06451937       0.00000048      -0.00000595      -0.00000152 
O      17.53933145       5.42018441       2.32924577       0.00000001      -0.00000415      -0.00000319 
H      18.00764132       5.42497003       1.46168067       0.00000027      -0.00000308      -0.00000294 
H      16.56051536       5.40741999       2.18677950       0.00000009      -0.00000301      -0.00000338 
O      12.75086154       8.94435335       9.01764350       0.00000512      -0.00000124       0.00000308 
H      12.01596534       9.40493298       8.54871982       0.00000443      -0.00000382       0.00000156 
H      13.38114803       9.60754759       9.37981771       0.00000307       0.00000139       0.00000210 
O      16.43821162      -0.17934365       8.31577248       0.00000176      -0.00000248      -0.00000122 
H      17.21580333      -0.21038417       8.93285842       0.00000156      -0.00000257      -0.00000107 
H      16.55395594       0.61859399       7.75336639       0.00000206      -0.00000217      -0.00000065 
O      13.56489846       5.33833994       0.09779545      -0.00000119       0.00000002      -0.00000104 
H      12.97152777       4.54911881       0.06236831      -0.00000091      -0.00000012      -0.00000082 
H      14.07856201       5.28492017       0.94065977      -0.00000069      -0.00000024      -0.00000141 
O      18.37976567      -0.22708548       9.97938741       0.00000092      -0.00000161      -0.00000006 
H      18.93679260       0.55061906       9.72121395       0.00000056      -0.00000106       0.00000089 
H      18.91063474      -1.03704143       9.77665808       0.00000129      -0.00000109      -0.00000101 
O      31.87415755       3.43279632      -0.09853892      -0.00000240       0.00000018       0.00000251 
H      32.83710642       3.64341538      -0.01426269      -0.00000246       0.00000064       0.00000172 
H      31.29515996       4.22754176      -0.07876073      -0.00000253       0.00000004       0.00000173 
O      25.24117638      -0.38503775       1.32911119      -0.00000005      -0.00000248      -0.00000178 
H      25.38666134      -0.36347330       0.35681541      -0.00000128      -0.00000144      -0.00000189 
H      24.69176433       0.40088822       1.55761779      -0.00000030      -0.00000305      -0.00000057 