4806
Lattice="19.387817012931908 4.6559869195316e-310 0.0 4.6600704409319e-310 19.354821507549694 0.0 0.0 0.0 19.378387714274222" Properties=species:S:1:pos:R:3:forces:R:3 energy=4.39097706916 stress="-1.2750106004567193e-06 -2.24406346e-315 -0.0 -2.24406346e-315 -6.571465872679336e-07 -0.0 -0.0 -0.0 -1.0698746917680216e-06" pbc="T T T"
O       5.25929475       1.71747259      -0.05752785      -0.00001569      -0.00000844      -0.00001179 
H       6.17095230       2.00063398       0.02089490       0.00001763       0.00000634       0.00000405 
H       5.18587208       1.39073565      -0.95491463      -0.00000194       0.00000210       0.00000774 
O       1.67441914       0.55305447       1.15635678       0.00000324      -0.00005655       0.00000153 
H       1.09831064       1.30531684       1.29653342      -0.00002274       0.00003516       0.00000529 
H       1.12781863      -0.20805471       1.35483202       0.00001950       0.00002139      -0.00000682 
O      -0.30776408       1.67660765       3.44292504       0.00001962      -0.00000624      -0.00000521 
H       0.53058481       2.11653296       3.29770872      -0.00000515      -0.00000602       0.00000053 
H      -0.91551724       2.38420642       3.66061757      -0.00001447       0.00001227       0.00000468 
O       4.41204766       2.08870385       4.19487215      -0.00000802      -0.00000428       0.00000540 
H       4.94687809       2.28440062       3.42473619       0.00000898       0.00000427      -0.00000838 
H       3.70485406       1.53532038       3.86156355      -0.00000095       0.00000000       0.00000298 
O       0.63039246       1.91523751       1.18298759      -0.00000521      -0.00000227      -0.00000132 
H       1.43562265       2.19940372       1.61692796       0.00000894       0.00000412       0.00000152 
H       0.13620356       1.46217660       1.86706632      -0.00000374      -0.00000185      -0.00000020 
O      -0.12967097       4.85010563       3.10009390      -0.00008845       0.00002322       0.00000079 
H       0.47363437       4.10816790       3.15486124       0.00004242      -0.00004734       0.00000335 
H      -1.00027708       4.45724785       3.17192916       0.00004602       0.00002412      -0.00000414 
O       1.17225744       5.16468254       1.00564876      -0.00002971       0.00008005       0.00008814 
H       0.41733982       5.49068206       1.49684824       0.00005853      -0.00002236      -0.00003510 
H       0.80653381       4.50904580       0.41080898      -0.00002882      -0.00005768      -0.00005303 
O       3.21830448       5.04725624       2.50241970       0.00000914      -0.00004167       0.00007313 
H       3.15379053       5.91873362       2.11022884      -0.00000426       0.00005279      -0.00002693 
H       3.31885626       5.21310050       3.44041617      -0.00000488      -0.00001112      -0.00004621 
O       3.98141013       3.15965308       5.25799046      -0.00000058       0.00000647       0.00001159 
H       4.26371977       2.44552957       4.68547056       0.00000273      -0.00000931      -0.00001054 
H       4.37427061       2.95579067       6.10743233      -0.00000215       0.00000284      -0.00000105 
O       5.30178515       1.35263114       5.20745246      -0.00000113      -0.00000287      -0.00000272 
H       4.78171159       1.79743638       4.53728657      -0.00000245      -0.00000090      -0.00000415 
H       5.54565099       2.04615546       5.82145886       0.00000357       0.00000377       0.00000687 
O       1.98111866       2.12764366       1.93274651      -0.00000132      -0.00000822       0.00000220 
H       2.65384396       1.46057722       2.07386225      -0.00000165      -0.00000313       0.00000089 
H       2.47128312       2.91808439       1.70385242       0.00000298       0.00001135      -0.00000309 
O       1.06870932       2.32895768       3.17905338       0.00000340       0.00000055      -0.00008628 
H       1.68825058       2.21412926       2.45764125      -0.00003396       0.00000637       0.00003409 
H       1.59644786       2.21096942       3.96963500       0.00003056      -0.00000693       0.00005220 
O       1.82456824       4.45464881       2.19898962      -0.00004613      -0.00000421      -0.00003538 
H       1.40701505       4.92675514       1.47772911       0.00001105      -0.00001746       0.00002299 
H       2.58939673       4.98608957       2.42272432       0.00003508       0.00002167       0.00001239 
O       1.90771148       2.07469399       4.46228644      -0.00000712       0.00001923       0.00001334 
H       2.62049789       1.58984903       4.04478101       0.00001393      -0.00001272      -0.00001023 
H       2.33721013       2.82486747       4.87486571      -0.00000681      -0.00000651      -0.00000311 
O       4.11018060      -0.34914323       0.17396203      -0.00000122       0.00000818      -0.00000055 
H       4.51424031       0.35351513       0.68431250      -0.00000142       0.00000367      -0.00000120 
H       4.49862728      -1.15247711       0.52212022       0.00000264      -0.00001184       0.00000175 
O       3.19209602       1.11943961       2.34076903      -0.00000742      -0.00001197      -0.00000379 
H       3.89498670       1.74834988       2.17383591       0.00001050       0.00001216       0.00000038 
H       3.25320106       0.49386192       1.61801770      -0.00000308      -0.00000019       0.00000341 
O       5.51744633       5.20212809       1.18935092      -0.00006582       0.00001531      -0.00003602 
H       6.24465744       5.59023154       1.67719150       0.00004275       0.00001928       0.00002811 
H       4.94888190       5.94296461       0.97640042       0.00002307      -0.00003459       0.00000791 
O       3.33429148       5.24603628       4.02733540       0.00007247      -0.00000282       0.00000913 
H       2.51462602       4.77250988       4.17352050      -0.00004619      -0.00002346       0.00000665 
H       4.01119672       4.66978330       4.38396393      -0.00002629       0.00002628      -0.00001578 
O       5.49300854       2.35475204       3.03291854       0.00000827       0.00001201       0.00001315 
H       4.93065992       2.23047710       2.26756256      -0.00001029      -0.00000551      -0.00001461 
H       5.47850760       3.29943028       3.19047372       0.00000203      -0.00000650       0.00000146 
O       1.87792704       0.11584867       5.71940156      -0.00001034      -0.00001723      -0.00003123 
H       1.43604693      -0.69210922       5.45596786       0.00000827       0.00001535       0.00000146 
H       1.89305340       0.07999169       6.67644653       0.00000207       0.00000188       0.00002977 
O       3.11307123       1.32347847       3.79411458      -0.00000039       0.00000083       0.00000956 
H       3.10822009       0.59227350       4.41279577      -0.00000013       0.00000170       0.00000235 
H       3.15652491       0.90815008       2.93210278       0.00000052      -0.00000252      -0.00001191 
O       2.02542574       4.45756046       4.36255914       0.00000344       0.00004222       0.00005653 
H       1.45771071       4.98686376       4.92379859       0.00002543      -0.00002062      -0.00002107 
H       1.43287718       4.07488837       3.71456443      -0.00002886      -0.00002159      -0.00003546 
O       5.89112522       4.38568145      -0.10166791      -0.00003656      -0.00014351      -0.00009624 
H       5.32420808       3.61374958      -0.11510755       0.00006419       0.00008467      -0.00000126 
H       5.64752461       4.84834764       0.70085636      -0.00002763       0.00005884       0.00009750 
O       5.21604872       5.42111146       5.33070739       0.00001606      -0.00002083       0.00000264 
H       5.53773785       4.87740380       6.05067206      -0.00000190       0.00000429      -0.00000990 
H       4.64495042       6.06419326       5.75230243      -0.00001415       0.00001654       0.00000727 
O      -0.10300960       0.90542112       2.21445975       0.00000076      -0.00000297      -0.00000442 
H      -0.42045790       1.50053742       2.89454320      -0.00000042       0.00000498       0.00000845 
H      -0.75755118       0.96620101       1.51780225      -0.00000034      -0.00000200      -0.00000402 
O       4.70039300       0.81686943       1.04866325      -0.00000532       0.00000680      -0.00001358 
H       5.12620261       1.26794328       0.31882124      -0.00000476      -0.00000123       0.00000119 
H       5.41862245       0.58110733       1.63689175       0.00001008      -0.00000557       0.00001239 
O       5.41722564       3.84837488       3.32429810       0.00000043       0.00000360      -0.00004183 
H       4.89186158       4.24421068       2.62805243       0.00001325      -0.00000954       0.00001273 
H       4.95061507       4.06811405       4.13141567      -0.00001368       0.00000594       0.00002910 
O       4.86725656       3.23832267      -0.12976611      -0.00002266       0.00003288      -0.00001878 
H       5.10447132       2.31176940      -0.18151208       0.00000996      -0.00003236       0.00000062 
H       4.30039585       3.38359468      -0.88806449       0.00001270      -0.00000051       0.00001816 
O      -0.20148180       5.41462812       4.55117589       0.00003611      -0.00000061      -0.00005144 
H      -0.99080646       5.04917576       4.95224966      -0.00003711      -0.00001569       0.00002170 
H      -0.15483105       4.99773945       3.69008389       0.00000100       0.00001630       0.00002973 
O       4.53030651       4.35888424       4.49123254      -0.00000428      -0.00000864      -0.00000277 
H       4.30777883       3.60585025       5.03975048      -0.00000108      -0.00000135      -0.00000257 
H       4.92019171       4.99013159       5.09701017       0.00000536       0.00000999       0.00000534 
O       3.14430994       0.02191929       1.34408935       0.00010602      -0.00004219      -0.00005247 
H       2.24809925       0.29824925       1.14942098      -0.00007990       0.00002499      -0.00001452 
H       3.51455684      -0.20957711       0.49157544      -0.00002612       0.00001719       0.00006700 
O       0.24322145       0.41536309       4.19396482      -0.00001931       0.00000485      -0.00002660 
H       0.82184180       0.81989242       4.84127015       0.00001696       0.00000844       0.00001991 
H      -0.03428681       1.14088644       3.63355763       0.00000235      -0.00001328       0.00000669 
O       0.97588459       3.89286958       3.32085391       0.00000309       0.00001591      -0.00000515 
H       1.45594615       4.26527795       2.58037856      -0.00000303       0.00000088       0.00000458 
H       1.06492288       2.94536399       3.21243159      -0.00000006      -0.00001679       0.00000056 
O       2.56216002       3.37777031       1.33234018       0.00006569      -0.00003314      -0.00003147 
H       2.22546313       4.14056808       1.80374597      -0.00002227       0.00004381       0.00002770 
H       3.49708161       3.55586403       1.22437491      -0.00004342      -0.00001067       0.00000376 
O       2.45855171       3.26579569       5.30250780      -0.00000402      -0.00000004       0.00000021 
H       2.21743857       4.02124673       4.76528465      -0.00000407       0.00000272      -0.00000179 
H       3.41575621       3.24649336       5.27357108       0.00000809      -0.00000269       0.00000159 
O       0.97261264       1.30413716       5.34153551      -0.00000030       0.00001333      -0.00000840 
H       1.62307540       1.79279764       4.83600615      -0.00000488       0.00000045       0.00000117 
H       1.45164282       0.54733157       5.68098430       0.00000518      -0.00001377       0.00000723 
O      -0.01272716       5.67496999       1.84023581      -0.00000145       0.00004125      -0.00001736 
H      -0.09986044       6.58253973       2.13379401       0.00000220      -0.00002007      -0.00000982 
H      -0.04279281       5.15817439       2.64613147      -0.00000075      -0.00002118       0.00002718 
O       0.70989493       4.21276808      -0.10419830       0.00006468      -0.00002073       0.00000290 
H       1.22404436       3.42440610       0.07353110      -0.00001735       0.00003213      -0.00000737 
H      -0.20066453       3.93317800      -0.00340260      -0.00004733      -0.00001141       0.00000446 
O       0.99801239       2.04822683      -0.29536220      -0.00000735       0.00001381       0.00002494 
H       0.76745873       1.81155978       0.60368442       0.00000256       0.00000636      -0.00001063 
H       1.15452734       1.20995035      -0.73153349       0.00000479      -0.00002017      -0.00001432 
O       4.44794556       2.09431086       1.98387681       0.00000696      -0.00002591       0.00000040 
H       4.27650233       2.87681387       1.45876150      -0.00000476       0.00002043      -0.00000996 
H       4.67821447       1.42087590       1.34285213      -0.00000220       0.00000548       0.00000957 
O       4.61710535       4.43171282       2.14312243       0.00009705       0.00000808      -0.00004678 
H       5.17152394       5.06096336       1.68039499      -0.00003390      -0.00004322       0.00002988 
H       3.81690742       4.91863902       2.34320785      -0.00006315       0.00003514       0.00001689 
O       4.05896437       3.38791348       1.18218409      -0.00000211       0.00000547       0.00001172 
H       4.51143513       3.30706286       0.34183681       0.00000490      -0.00000360      -0.00001326 
H       4.49265628       4.12203582       1.61856288      -0.00000279      -0.00000187       0.00000155 
O       1.09556533       5.14848986       5.37519892       0.00001835       0.00000703       0.00001137 
H       1.47830114       5.99493931       5.60862469      -0.00000093      -0.00000871      -0.00000053 
H       0.30468808       5.37043259       4.88254840      -0.00001742       0.00000167      -0.00001083 
O       3.11318452       0.21089987       4.86351528      -0.00010208      -0.00000713       0.00000230 
H       3.89809484       0.22511588       5.41229742       0.00005897       0.00000130       0.00003804 
H       2.38883659       0.11703759       5.48316254       0.00004311       0.00000583      -0.00004034 
O       1.78704477       3.22578195       0.03954405      -0.00004281      -0.00004842      -0.00004640 
H       2.29587603       3.27450336       0.84958456       0.00003023       0.00000553       0.00004684 
H       1.48915907       2.31640874      -0.00236945       0.00001258       0.00004289      -0.00000044 
O       4.45783182       0.12632396       5.58536405       0.00000193       0.00000225      -0.00000666 
H       4.31443082       0.06982343       6.53071803      -0.00000278      -0.00000320       0.00000974 
H       4.89229881       0.97049290       5.45860507       0.00000085       0.00000095      -0.00000308 
O      12.54124778       2.18594903      -0.18446590       0.00001038      -0.00001343      -0.00001144 
H      11.73722675       2.68280288      -0.02910687      -0.00001453       0.00001105       0.00000559 
H      12.36163557       1.68094080      -0.97829022       0.00000414       0.00000238       0.00000584 
O       8.33619209       0.26813278       0.80363250       0.00000184       0.00000524      -0.00000030 
H       7.91231494      -0.58512063       0.90230938      -0.00000164      -0.00000940      -0.00000012 
H       7.68413278       0.89732416       1.11409572      -0.00000020       0.00000416       0.00000042 
O       6.63165489       1.38859540       2.99430397       0.00000285      -0.00000285       0.00000041 
H       5.94784407       2.05716471       2.94074814      -0.00000518       0.00000614      -0.00000360 
H       6.61282592       1.09868483       3.90701852       0.00000233      -0.00000329       0.00000319 
O      10.63126160       1.94678969       4.46574430      -0.00003666       0.00001901       0.00004416 
H      10.40675377       2.75029596       4.93630323       0.00000541      -0.00002850      -0.00001401 
H      11.30214158       2.21617604       3.83741308       0.00003124       0.00000949      -0.00003015 
O       7.22715184       1.40421494       1.19141254      -0.00003524      -0.00001826      -0.00000852 
H       6.52097444       0.94702698       1.64939073       0.00001320       0.00000906      -0.00001210 
H       7.84471859       1.64548290       1.88267995       0.00002205       0.00000920       0.00002062 
O       6.56169773       4.84614403       3.26157690       0.00003376       0.00006043       0.00003232 
H       5.78367965       4.28814033       3.28929768      -0.00004291      -0.00003344      -0.00000094 
H       6.42012056       5.48994726       3.95650531       0.00000915      -0.00002699      -0.00003139 
O       7.75519114       5.28171325       1.01042227       0.00010861       0.00017900       0.00006784 
H       8.24997930       6.03423761       0.68431303      -0.00006843      -0.00010367       0.00004917 
H       7.50151701       4.80125019       0.22159392      -0.00004018      -0.00007532      -0.00011701 
O       9.57290300       5.24727912       2.39305875      -0.00013480       0.00000351      -0.00000920 
H       8.82649748       4.70952083       2.12632230       0.00005997       0.00004712       0.00002295 
H      10.33707966       4.69113936       2.23752741       0.00007483      -0.00005063      -0.00001375 
O      10.45633916       3.30932685       5.25457717       0.00003912       0.00001923      -0.00001788 
H       9.49905752       3.34031312       5.26463201      -0.00003586      -0.00000127       0.00000245 
H      10.71265899       4.00689714       4.65030294      -0.00000326      -0.00001796       0.00001543 
O      11.22680166       0.99143484       5.57768444      -0.00006213       0.00004433      -0.00001093 
H      10.83607359       1.56793649       4.92009062       0.00001510      -0.00002526       0.00003132 
H      12.04088521       0.68612138       5.17581335       0.00004703      -0.00001907      -0.00002038 
O       8.37757811       1.83775594       2.02939334       0.00001103      -0.00000874      -0.00001036 
H       9.18905713       1.34746799       2.16566649      -0.00000375       0.00000168      -0.00000409 
H       8.13135527       2.14198473       2.90361826      -0.00000728       0.00000706       0.00001445 
O       7.74712356       2.44950565       3.34747110       0.00000908       0.00000386       0.00000615 
H       8.13385251       2.12531083       4.16158973       0.00000176       0.00000274      -0.00000107 
H       7.01688201       1.85415577       3.17497186      -0.00001083      -0.00000660      -0.00000508 
O       8.51054411       4.23564411       1.83567058       0.00000198      -0.00000285       0.00000252 
H       7.89190308       4.04648415       2.54203615      -0.00000048      -0.00000264       0.00000400 
H       8.05597328       4.87197265       1.28258675      -0.00000150       0.00000549      -0.00000651 
O       8.51603939       1.98861704       4.60775153      -0.00006448       0.00001514       0.00006592 
H       8.01333784       1.52369325       5.27751985       0.00002653       0.00002857      -0.00003643 
H       9.05777245       1.31140326       4.20111271       0.00003795      -0.00004370      -0.00002949 
O      10.80808637       0.32247916       0.50301985      -0.00002304      -0.00003113      -0.00005242 
H      10.90933488       0.31307229      -0.44940452      -0.00000582      -0.00000193       0.00003477 
H      11.41092862       1.00426377       0.80168345       0.00002886       0.00003305       0.00001765 
O       9.69723874       1.04812915       2.37253059       0.00000652       0.00001424       0.00000727 
H      10.47705681       1.58266326       2.21888197      -0.00000446      -0.00000023       0.00000335 
H       9.75184440       0.35049883       1.71848150      -0.00000207      -0.00001402      -0.00001062 
O      11.52665378       5.03267585       1.11146697       0.00011960      -0.00016606      -0.00004344 
H      11.88243649       4.52991071       0.37791323      -0.00004532       0.00006413       0.00009942 
H      11.01732367       5.73117753       0.69900610      -0.00007428       0.00010194      -0.00005598 
O       9.66375120       5.28572269       3.96980013      -0.00003305      -0.00002185       0.00006214 
H       8.87684050       4.82548284       4.26374392       0.00003434       0.00001993      -0.00000974 
H       9.59384379       5.29453337       3.01455979      -0.00000129       0.00000192      -0.00005240 
O      11.63905141       2.38987847       3.32683553       0.00001134      -0.00006482       0.00000491 
H      12.36712229       1.77045784       3.38752179      -0.00002928       0.00002057      -0.00000213 
H      12.05885279       3.24921702       3.27436631       0.00001794       0.00004425      -0.00000278 
O       8.57504830       0.04298984       6.02228223      -0.00005618       0.00003282       0.00002971 
H       9.15619639       0.03642708       5.26091986       0.00003272      -0.00000286      -0.00003948 
H       7.96454866       0.76113641       5.85196558       0.00002346      -0.00002996       0.00000977 
O       9.51345677       1.01085863       3.88952390      -0.00000797      -0.00000938      -0.00001241 
H       9.63928697       0.88115965       2.94888807      -0.00000336      -0.00000158       0.00000452 
H      10.20508353       1.62356606       4.14189680       0.00001134       0.00001096       0.00000789 
O       8.45965589       4.40891365       4.42610233      -0.00000569       0.00003398       0.00004779 
H       8.00979296       4.06933119       3.65166304      -0.00001774      -0.00001674      -0.00003558 
H       7.80525495       4.95448602       4.86378029       0.00002343      -0.00001723      -0.00001221 
O      12.01828783       4.08190236      -0.04187320       0.00002801      -0.00002750       0.00001971 
H      11.88596888       4.69410634      -0.76654378      -0.00000701       0.00002174      -0.00002439 
H      12.91635054       3.76817945      -0.15373362      -0.00002100       0.00000576       0.00000468 
O      12.12934630       5.09568915       5.22097490       0.00002535       0.00000798       0.00000630 
H      11.53710076       4.75511162       4.54963147      -0.00001692      -0.00000826      -0.00001420 
H      12.97575366       5.17021249       4.77883022      -0.00000844       0.00000028       0.00000789 
O       5.95416365       0.61069562       1.85465145      -0.00000112       0.00001538       0.00000759 
H       6.24641005       0.95253355       2.70034034      -0.00000259       0.00000110      -0.00000481 
H       6.23345820      -0.30551417       1.85671055       0.00000371      -0.00001648      -0.00000278 
O      11.90780301       1.29063773       1.08615812       0.00000768      -0.00000291      -0.00001019 
H      12.21724653       1.82654779       0.35506588       0.00000081      -0.00000360       0.00000054 
H      11.36948882       1.88587253       1.60899990      -0.00000848       0.00000651       0.00000965 
O      11.90956383       3.85195930       3.25020665      -0.00005091      -0.00002400      -0.00002965 
H      11.34763408       4.03015589       2.49526769       0.00001840      -0.00000886       0.00002764 
H      12.55644685       4.55827678       3.23986360       0.00003250       0.00003286       0.00000201 
O      11.11869367       2.86923209       0.18627566      -0.00007887      -0.00007112      -0.00005686 
H      11.65365274       3.65686357       0.08185744       0.00004706       0.00006713      -0.00000571 
H      10.66327643       2.77572973      -0.65116426       0.00003181       0.00000399       0.00006258 
O       6.36132111       5.82359554       4.39585640      -0.00005692      -0.00008079       0.00005433 
H       6.40939763       6.77064672       4.26083562       0.00000651       0.00007602      -0.00001299 
H       5.62894450       5.70444909       5.00156395       0.00005041       0.00000477      -0.00004134 
O      11.00619790       4.51305857       4.38093833       0.00002651      -0.00001589      -0.00000681 
H      10.21427276       4.93881032       4.05072666      -0.00002253       0.00001241      -0.00000612 
H      11.44808498       4.18662412       3.59631899      -0.00000398       0.00000348       0.00001293 
O       9.70741454      -0.12783144       1.36786331       0.00004470       0.00000355      -0.00000938 
H      10.27546615       0.25339103       0.69746171      -0.00001149      -0.00001013       0.00001753 
H       8.81947747       0.08957586       1.08194156      -0.00003321       0.00000658      -0.00000815 
O       6.69331490       1.03839925       4.52039512      -0.00002324       0.00003750       0.00001330 
H       5.83178974       1.27284714       4.86718046       0.00002137      -0.00000230      -0.00000816 
H       6.65800806       0.08726277       4.41296036       0.00000187      -0.00003519      -0.00000515 
O       7.73325883       3.91312708       3.08858431      -0.00004803       0.00010156      -0.00000007 
H       7.57932098       2.99071888       3.29574163      -0.00000941      -0.00007465       0.00001570 
H       6.90806802       4.34862012       3.30505359       0.00005744      -0.00002691      -0.00001563 
O       8.64814308       2.97872517       0.94066244       0.00000166      -0.00002513       0.00000030 
H       8.44901467       3.77936697       1.42725308      -0.00000393       0.00002095       0.00000838 
H       8.51084136       2.27292746       1.57347270       0.00000227       0.00000418      -0.00000868 
O       8.93667592       3.25385094       5.33941977      -0.00000008       0.00000950       0.00000134 
H       8.75134570       2.42180793       4.90260475      -0.00000077      -0.00001206      -0.00000315 
H       8.53494173       3.91564822       4.77542984       0.00000085       0.00000256       0.00000181 
O       7.67826013       1.27705487       5.70915119      -0.00000310      -0.00000985      -0.00001754 
H       6.92311126       1.13554068       5.13715921       0.00000706      -0.00000060       0.00000220 
H       7.33771610       1.80958570       6.42879741      -0.00000396       0.00001045       0.00001535 
O       6.70408530       5.81321768       2.07468720      -0.00000429       0.00000075       0.00000521 
H       6.68222454       5.16358361       2.77821280      -0.00000211       0.00000027       0.00000266 
H       7.37524215       5.49149762       1.47178174       0.00000640      -0.00000102      -0.00000787 
O       7.36312974       4.52621149      -0.33665653      -0.00015730       0.00008248       0.00003649 
H       6.44674715       4.34438733      -0.12538065       0.00010363       0.00002446      -0.00002388 
H       7.76381222       3.66132981      -0.43088814       0.00005367      -0.00010694      -0.00001260 
O       6.73532093       2.22355556      -0.06955540       0.00000304      -0.00001775      -0.00013376 
H       7.07750078       1.63101244      -0.73982334      -0.00002981       0.00005109       0.00005286 
H       7.03291335       1.84610259       0.75894650       0.00002677      -0.00003333       0.00008090 
O      10.95599844       1.92309100       2.02046069       0.00009553      -0.00003425       0.00010529 
H      11.41970987       2.30661627       2.76566796      -0.00004080      -0.00003749      -0.00006716 
H      10.43114238       2.64276350       1.66826080      -0.00005473       0.00007173      -0.00003813 
O      10.81290250       4.26173443       2.18817353      -0.00005720      -0.00007432       0.00001661 
H      10.32122915       3.58296192       1.72451654       0.00002697       0.00003748       0.00002907 
H      11.23331130       4.77015117       1.49375494       0.00003023       0.00003684      -0.00004568 
O      10.14987723       3.11339036       1.36838667       0.00005207       0.00000043      -0.00001689 
H      10.65708557       3.04697184       0.55858425      -0.00001190       0.00000228       0.00002562 
H       9.23724130       3.04249587       1.08639584      -0.00004017      -0.00000272      -0.00000873 
O       7.43006316       5.15736799       5.25194362      -0.00003986      -0.00000329      -0.00002344 
H       6.79590723       5.72570286       4.81343111       0.00001357      -0.00001634       0.00000982 
H       8.09786839       5.75668699       5.58705899       0.00002630       0.00001963       0.00001362 
O       9.34610876      -0.26473802       4.71073669      -0.00000335       0.00000110      -0.00000372 
H      10.06409240      -0.32084710       5.34224410       0.00000531      -0.00000310       0.00000715 
H       9.55786168       0.49978628       4.17397431      -0.00000196       0.00000200      -0.00000343 
O       7.99902644       3.10669804      -0.44937288       0.00004128       0.00001851       0.00002583 
H       7.21713802       2.55782916      -0.37978325      -0.00003267      -0.00002173      -0.00000048 
H       8.39878463       3.06619995       0.42011256      -0.00000861       0.00000322      -0.00002535 
O      10.32537863      -0.25950549       5.85759315      -0.00000295      -0.00007668       0.00000795 
H      10.89865733       0.47201596       5.62591103       0.00003027       0.00004411      -0.00001274 
H      10.87989734      -1.03568708       5.77097138      -0.00002732       0.00003257       0.00000479 
O      18.80542771       1.90279318      -0.16652543       0.00002142      -0.00000937      -0.00000208 
H      19.69055861       2.24126096      -0.30593068      -0.00000713      -0.00000580       0.00000135 
H      18.24976515       2.68284399      -0.15204189      -0.00001429       0.00001517       0.00000073 
O      14.77541778      -0.74349460       0.76464022       0.00000056      -0.00000163       0.00000103 
H      14.92889207      -0.55122900      -0.16106492       0.00000285      -0.00000197      -0.00000666 
H      14.29093297       0.01588763       1.09031419      -0.00000341       0.00000360       0.00000563 