4224
Lattice="29.289781438062686 2.022455511167e-312 0.0 2.23679707796e-312 32.38572062181923 0.0 0.0 0.0 27.940942594791867" Properties=species:S:1:pos:R:3:forces:R:3 stress="-0.00764594879225007 -8.79415859e-315 -0.0 -8.79415859e-315 -0.007724555128903662 -0.0 -0.0 -0.0 -0.00705149934852977" cutoff=-1.0 energy=-498.261408632 nneightol=1.2 pbc="T T T"
O       4.06761950       3.35526811       4.64109608       0.00000021      -0.00000021      -0.00000025 
H       3.78995468       3.83951596       5.44458069       0.00000089      -0.00000121      -0.00000165 
H       5.04506105       3.36125575       4.62325888      -0.00000233       0.00000026       0.00000064 
O       3.25484334       4.74112397       2.31268585      -0.00000021       0.00000020      -0.00000025 
H       3.53250844       4.25688283       3.11617443      -0.00000088       0.00000120      -0.00000165 
H       2.27740152       4.73513718       2.29485231       0.00000232      -0.00000026       0.00000064 
O       0.40637886       0.69291947       4.64109627       0.00000021       0.00000020      -0.00000023 
H       0.12871972       0.20867126       5.44458293       0.00000089       0.00000121      -0.00000166 
H       1.38381992       0.68693428       4.62325694      -0.00000234      -0.00000026       0.00000064 
O       6.91607911       7.40348884       2.31268678      -0.00000021      -0.00000020      -0.00000025 
H       7.19374100       7.88773019       3.11617669      -0.00000088      -0.00000120      -0.00000165 
H       5.93863810       7.40947476       2.29485161       0.00000233       0.00000026       0.00000064 
O       4.06918612       7.43905752       2.34784223       0.00000025       0.00000018       0.00000056 
H       3.77755501       7.87062245       1.51731308       0.00000017      -0.00000115       0.00000206 
H       3.81475747       6.49399817       2.32966861       0.00000054       0.00000286      -0.00000032 
O       3.25327638       0.65733698       0.01940962      -0.00000025      -0.00000016       0.00000055 
H       3.54490722       0.22577098      -0.81111929      -0.00000017       0.00000115       0.00000206 
H       3.50770666       1.60239555       0.00123328      -0.00000055      -0.00000289      -0.00000033 
O       0.40796549       4.70555531       2.34784267       0.00000025      -0.00000016       0.00000055 
H       0.11633017       4.27399148       1.51731425       0.00000017       0.00000115       0.00000206 
H       0.15353843       5.65061533       2.32967137       0.00000055      -0.00000289      -0.00000033 
O       6.91450656       3.39084677       0.01940952      -0.00000025       0.00000014       0.00000056 
H       7.20613701       3.82241156      -0.81112028      -0.00000016      -0.00000114       0.00000205 
H       7.16893026       2.44578634       0.00123210      -0.00000055       0.00000289      -0.00000033 
O       4.06762186       3.35526869       9.29788263       0.00000024      -0.00000020      -0.00000024 
H       3.78996097       3.83950763      10.10137397       0.00000089      -0.00000121      -0.00000166 
H       5.04506347       3.36125662       9.28004069      -0.00000236       0.00000026       0.00000064 
O       3.25483723       4.74113362       6.96948743      -0.00000022       0.00000020      -0.00000024 
H       3.53250088       4.25688705       7.77297295      -0.00000089       0.00000121      -0.00000165 
H       2.27739516       4.73514574       6.95164705       0.00000234      -0.00000026       0.00000064 
O       0.40638122       0.69291889       9.29788283       0.00000022       0.00000020      -0.00000024 
H       0.12872601       0.20867958      10.10137621       0.00000089       0.00000121      -0.00000165 
H       1.38382234       0.68693341       9.28003874      -0.00000234      -0.00000026       0.00000064 
O       6.91607300       7.40347919       6.96948837      -0.00000020      -0.00000019      -0.00000025 
H       7.19373344       7.88772597       7.77297522      -0.00000089      -0.00000121      -0.00000166 
H       5.93863175       7.40946620       6.95164636       0.00000233       0.00000026       0.00000064 
O       4.06919159       7.43905228       7.00464134       0.00000025       0.00000015       0.00000057 
H       3.77754994       7.87062629       6.17412070       0.00000016      -0.00000114       0.00000204 
H       3.81475501       6.49399474       6.98646989       0.00000055       0.00000289      -0.00000033 
O       3.25326761       0.65734529       4.67625169      -0.00000025      -0.00000013       0.00000057 
H       3.54490613       0.22577531       3.84572797      -0.00000016       0.00000114       0.00000204 
H       3.50770573       1.60240243       4.65808239      -0.00000055      -0.00000290      -0.00000033 
O       0.40797096       4.70556055       7.00464178       0.00000026      -0.00000016       0.00000057 
H       0.11632510       4.27398763       6.17412187       0.00000016       0.00000114       0.00000204 
H       0.15353598       5.65061877       6.98647266       0.00000055      -0.00000288      -0.00000033 
O       6.91449779       3.39083844       4.67625160      -0.00000025       0.00000015       0.00000055 
H       7.20613592       3.82240722       3.84572698      -0.00000017      -0.00000115       0.00000206 
H       7.16892933       2.44577946       4.65808122      -0.00000055       0.00000289      -0.00000033 
O       4.06761586       3.35527895      13.95472680       0.00000022      -0.00000020      -0.00000025 
H       3.78995360       3.83951164      14.75822173       0.00000088      -0.00000121      -0.00000165 
H       5.04505721       3.36126568      13.93689209      -0.00000234       0.00000026       0.00000064 
O       3.25484013       4.74112376      11.62629475      -0.00000022       0.00000019      -0.00000022 
H       3.53250135       4.25689206      12.42979036      -0.00000089       0.00000122      -0.00000167 
H       2.27739823       4.73513638      11.60845638       0.00000235      -0.00000026       0.00000064 
O       0.40637522       0.69290863      13.95472699       0.00000023       0.00000020      -0.00000024 
H       0.12871864       0.20867557      14.75822397       0.00000088       0.00000121      -0.00000165 
H       1.38381608       0.68692435      13.93689014      -0.00000234      -0.00000026       0.00000064 
O       6.91607591       7.40348904      11.62629568      -0.00000023      -0.00000018      -0.00000021 
H       7.19373392       7.88772095      12.42979263      -0.00000089      -0.00000122      -0.00000167 
H       5.93863482       7.40947556      11.60845568       0.00000235       0.00000026       0.00000064 
O       4.06918322       7.43906024      11.66144497       0.00000025       0.00000013       0.00000057 
H       3.77754859       7.87063090      10.83091971       0.00000017      -0.00000114       0.00000205 
H       3.81475360       6.49400147      11.64326682       0.00000056       0.00000290      -0.00000033 
O       3.25326991       0.65734320       9.33303234      -0.00000025      -0.00000015       0.00000055 
H       3.54491170       0.22576787       8.50251225      -0.00000017       0.00000114       0.00000206 
H       3.50770879       1.60239985       9.31485872      -0.00000055      -0.00000289      -0.00000033 
O       0.40796259       4.70555259      11.66144542       0.00000024      -0.00000015       0.00000055 
H       0.11632375       4.27398302      10.83092088       0.00000017       0.00000115       0.00000206 
H       0.15353457       5.65061203      11.64326959       0.00000055      -0.00000290      -0.00000033 
O       6.91450009       3.39084054       9.33303225      -0.00000025       0.00000013       0.00000056 
H       7.20614149       3.82241467       8.50251126      -0.00000017      -0.00000114       0.00000204 
H       7.16893239       2.44578204       9.31485754      -0.00000056       0.00000290      -0.00000033 
O       4.06761950       3.35526811      18.61156737       0.00000021      -0.00000021      -0.00000026 
H       3.78995468       3.83951596      19.41505199       0.00000088      -0.00000120      -0.00000164 
H       5.04506105       3.36125575      18.59373018      -0.00000233       0.00000026       0.00000064 
O       3.25484335       4.74112397      16.28315713      -0.00000024       0.00000021      -0.00000027 
H       3.53250845       4.25688283      17.08664572      -0.00000088       0.00000119      -0.00000162 
H       2.27740153       4.73513718      16.26532359       0.00000234      -0.00000026       0.00000064 
O       0.40637886       0.69291947      18.61156757       0.00000022       0.00000021      -0.00000028 
H       0.12871973       0.20867126      19.41505423       0.00000088       0.00000119      -0.00000163 
H       1.38381992       0.68693429      18.59372823      -0.00000234      -0.00000026       0.00000064 
O       6.91607911       7.40348884      16.28315807      -0.00000021      -0.00000019      -0.00000024 
H       7.19374100       7.88773018      17.08664798      -0.00000089      -0.00000120      -0.00000165 
H       5.93863810       7.40947476      16.26532290       0.00000233       0.00000026       0.00000064 
O       4.06918613       7.43905752      16.31831352       0.00000025       0.00000017       0.00000055 
H       3.77755502       7.87062245      15.48778437       0.00000017      -0.00000115       0.00000206 
H       3.81475747       6.49399818      16.30013989       0.00000055       0.00000288      -0.00000033 
O       3.25327639       0.65733697      13.98988091      -0.00000025      -0.00000015       0.00000055 
H       3.54490723       0.22577098      13.15935200      -0.00000017       0.00000114       0.00000206 
H       3.50770667       1.60239555      13.97170457      -0.00000055      -0.00000290      -0.00000032 
O       0.40796549       4.70555531      16.31831396       0.00000025      -0.00000015       0.00000055 
H       0.11633018       4.27399148      15.48778553       0.00000017       0.00000115       0.00000206 
H       0.15353844       5.65061533      16.30014266       0.00000055      -0.00000289      -0.00000033 
O       6.91450657       3.39084677      13.98988082      -0.00000024       0.00000016       0.00000054 
H       7.20613701       3.82241156      13.15935101      -0.00000017      -0.00000115       0.00000207 
H       7.16893027       2.44578634      13.97170340      -0.00000055       0.00000288      -0.00000033 
O       4.06762186       3.35526869      23.26835393       0.00000020      -0.00000020      -0.00000025 
H       3.78996097       3.83950763      24.07184526       0.00000089      -0.00000120      -0.00000165 
H       5.04506347       3.36125663      23.25051199      -0.00000233       0.00000026       0.00000064 
O       3.25483723       4.74113362      20.93995873      -0.00000022       0.00000021      -0.00000025 
H       3.53250088       4.25688705      21.74344425      -0.00000088       0.00000120      -0.00000164 
H       2.27739517       4.73514575      20.92211835       0.00000234      -0.00000026       0.00000064 
O       0.40638122       0.69291890      23.26835413       0.00000022       0.00000021      -0.00000027 
H       0.12872601       0.20867958      24.07184750       0.00000088       0.00000120      -0.00000163 
H       1.38382234       0.68693341      23.25051004      -0.00000233      -0.00000026       0.00000064 
O       6.91607300       7.40347919      20.93995967      -0.00000020      -0.00000020      -0.00000026 
H       7.19373344       7.88772597      21.74344652      -0.00000088      -0.00000120      -0.00000164 
H       5.93863174       7.40946620      20.92211765       0.00000233       0.00000026       0.00000064 
O       4.06919159       7.43905228      20.97511263       0.00000023       0.00000016       0.00000053 
H       3.77754994       7.87062629      20.14459199       0.00000018      -0.00000116       0.00000208 
H       3.81475501       6.49399474      20.95694118       0.00000055       0.00000289      -0.00000033 
O       3.25326762       0.65734530      18.64672299      -0.00000024      -0.00000017       0.00000052 
H       3.54490614       0.22577532      17.81619926      -0.00000018       0.00000116       0.00000209 
H       3.50770573       1.60240243      18.62855369      -0.00000055      -0.00000289      -0.00000033 
O       0.40797097       4.70556056      20.97511307       0.00000024      -0.00000017       0.00000054 
H       0.11632511       4.27398764      20.14459316       0.00000017       0.00000116       0.00000208 
H       0.15353598       5.65061877      20.95694395       0.00000055      -0.00000289      -0.00000033 
O       6.91449779       3.39083845      18.64672290      -0.00000024       0.00000016       0.00000052 
H       7.20613592       3.82240723      17.81619828      -0.00000018      -0.00000116       0.00000208 
H       7.16892933       2.44577946      18.62855252      -0.00000055       0.00000289      -0.00000033 
O       4.06761585       3.35527895      27.92519810       0.00000024      -0.00000021      -0.00000025 
H       3.78995359       3.83951164      28.72869303       0.00000088      -0.00000120      -0.00000164 
H       5.04505720       3.36126568      27.90736339      -0.00000235       0.00000026       0.00000064 
O       3.25484013       4.74112377      25.59676605      -0.00000023       0.00000021      -0.00000027 
H       3.53250135       4.25689206      26.40026167      -0.00000088       0.00000120      -0.00000164 
H       2.27739823       4.73513639      25.57892769       0.00000235      -0.00000026       0.00000064 
O       0.40637522       0.69290864      27.92519830       0.00000021       0.00000019      -0.00000025 
H       0.12871864       0.20867558      28.72869527       0.00000088       0.00000120      -0.00000164 
H       1.38381608       0.68692435      27.90736144      -0.00000232      -0.00000026       0.00000064 
O       6.91607590       7.40348904      25.59676699      -0.00000022      -0.00000022      -0.00000026 
H       7.19373391       7.88772095      26.40026393      -0.00000088      -0.00000120      -0.00000164 
H       5.93863481       7.40947556      25.57892699       0.00000234       0.00000026       0.00000064 
O       4.06918321       7.43906024      25.63191628       0.00000024       0.00000015       0.00000054 
H       3.77754859       7.87063090      24.80139102       0.00000017      -0.00000115       0.00000207 
H       3.81475359       6.49400147      25.61373812       0.00000055       0.00000289      -0.00000032 
O       3.25326990       0.65734320      23.30350364      -0.00000024      -0.00000014       0.00000054 
H       3.54491169       0.22576787      22.47298354      -0.00000017       0.00000115       0.00000207 
H       3.50770878       1.60239985      23.28533002      -0.00000056      -0.00000291      -0.00000032 
O       0.40796258       4.70555259      25.63191673       0.00000023      -0.00000013       0.00000053 
H       0.11632375       4.27398303      24.80139219       0.00000018       0.00000115       0.00000208 
H       0.15353456       5.65061204      25.61374089       0.00000056      -0.00000292      -0.00000032 
O       6.91450008       3.39084054      23.30350355      -0.00000024       0.00000017       0.00000055 
H       7.20614148       3.82241467      22.47298256      -0.00000017      -0.00000114       0.00000206 
H       7.16893238       2.44578204      23.28532884      -0.00000055       0.00000288      -0.00000032 
O       4.06761950      11.45169827       4.64109608       0.00000021      -0.00000020      -0.00000025 
H       3.78995468      11.93594611       5.44458069       0.00000088      -0.00000121      -0.00000165 
H       5.04506105      11.45768591       4.62325889      -0.00000233       0.00000026       0.00000064 
O       3.25484334      12.83755413       2.31268584      -0.00000020       0.00000019      -0.00000023 
H       3.53250844      12.35331299       3.11617443      -0.00000089       0.00000121      -0.00000166 
H       2.27740152      12.83156734       2.29485231       0.00000232      -0.00000026       0.00000064 
O       0.40637886       8.78934964       4.64109628       0.00000022       0.00000019      -0.00000024 
H       0.12871972       8.30510142       5.44458294       0.00000089       0.00000121      -0.00000166 
H       1.38381991       8.78336445       4.62325694      -0.00000233      -0.00000026       0.00000064 
O       6.91607911      15.49991899       2.31268678      -0.00000022      -0.00000021      -0.00000026 
H       7.19374101      15.98416034       3.11617669      -0.00000089      -0.00000120      -0.00000164 
H       5.93863810      15.50590492       2.29485161       0.00000234       0.00000026       0.00000064 
O       4.06918612      15.53548768       2.34784223       0.00000024       0.00000016       0.00000054 
H       3.77755501      15.96705261       1.51731308       0.00000017      -0.00000115       0.00000207 
H       3.81475747      14.59042833       2.32966861       0.00000055       0.00000289      -0.00000033 
O       3.25327638       8.75376713       0.01940962      -0.00000025      -0.00000013       0.00000057 
H       3.54490723       8.32220114      -0.81111929      -0.00000016       0.00000114       0.00000204 
H       3.50770666       9.69882571       0.00123328      -0.00000055      -0.00000290      -0.00000032 
O       0.40796549      12.80198547       2.34784268       0.00000024      -0.00000015       0.00000054 
H       0.11633017      12.37042164       1.51731425       0.00000017       0.00000115       0.00000206 
H       0.15353843      13.74704549       2.32967137       0.00000055      -0.00000290      -0.00000032 
O       6.91450656      11.48727692       0.01940952      -0.00000024       0.00000014       0.00000056 
H       7.20613701      11.91884171      -0.81112028      -0.00000017      -0.00000114       0.00000205 
H       7.16893026      10.54221650       0.00123210      -0.00000056       0.00000290      -0.00000032 
O       4.06762186      11.45169885       9.29788263       0.00000024      -0.00000019      -0.00000024 
H       3.78996097      11.93593779      10.10137397       0.00000089      -0.00000121      -0.00000165 
H       5.04506348      11.45768678       9.28004069      -0.00000236       0.00000026       0.00000064 
O       3.25483723      12.83756377       6.96948744      -0.00000020       0.00000021      -0.00000025 
H       3.53250088      12.35331720       7.77297296      -0.00000088       0.00000120      -0.00000164 
H       2.27739517      12.83157590       6.95164706       0.00000232      -0.00000026       0.00000064 
O       0.40638122       8.78934905       9.29788283       0.00000023       0.00000020      -0.00000026 
H       0.12872601       8.30510974      10.10137621       0.00000088       0.00000120      -0.00000164 
H       1.38382234       8.78336357       9.28003874      -0.00000234      -0.00000026       0.00000064 
O       6.91607300      15.49990935       6.96948837      -0.00000023      -0.00000021      -0.00000024 
H       7.19373345      15.98415613       7.77297522      -0.00000089      -0.00000121      -0.00000165 
H       5.93863175      15.50589636       6.95164635       0.00000235       0.00000026       0.00000064 
O       4.06919159      15.53548244       7.00464134       0.00000025       0.00000011       0.00000058 
H       3.77754994      15.96705645       6.17412070       0.00000016      -0.00000114       0.00000204 
H       3.81475501      14.59042490       6.98646989       0.00000056       0.00000290      -0.00000032 
O       3.25326761       8.75377546       4.67625170      -0.00000025      -0.00000015       0.00000055 
H       3.54490614       8.32220547       3.84572797      -0.00000017       0.00000114       0.00000205 
H       3.50770573       9.69883259       4.65808240      -0.00000055      -0.00000289      -0.00000032 
O       0.40797096      12.80199071       7.00464179       0.00000024      -0.00000012       0.00000055 
H       0.11632510      12.37041779       6.17412187       0.00000017       0.00000114       0.00000205 
H       0.15353598      13.74704893       6.98647266       0.00000056      -0.00000291      -0.00000033 
O       6.91449780      11.48726860       4.67625160      -0.00000026       0.00000014       0.00000058 
H       7.20613592      11.91883738       3.84572698      -0.00000016      -0.00000113       0.00000203 
H       7.16892933      10.54220961       4.65808122      -0.00000055       0.00000288      -0.00000032 
O       4.06761586      11.45170911      13.95472680       0.00000022      -0.00000020      -0.00000025 
H       3.78995360      11.93594180      14.75822173       0.00000088      -0.00000120      -0.00000165 
H       5.04505721      11.45769584      13.93689208      -0.00000234       0.00000026       0.00000064 
O       3.25484014      12.83755393      11.62629474      -0.00000021       0.00000019      -0.00000023 
H       3.53250136      12.35332222      12.42979036      -0.00000089       0.00000121      -0.00000166 
H       2.27739824      12.83156655      11.60845638       0.00000233      -0.00000026       0.00000064 
O       0.40637522       8.78933879      13.95472699       0.00000022       0.00000020      -0.00000024 
H       0.12871864       8.30510574      14.75822396       0.00000089       0.00000121      -0.00000165 
H       1.38381608       8.78335451      13.93689013      -0.00000234      -0.00000026       0.00000064 
O       6.91607591      15.49991919      11.62629568      -0.00000020      -0.00000020      -0.00000026 
H       7.19373392      15.98415111      12.42979263      -0.00000088      -0.00000120      -0.00000164 
H       5.93863482      15.50590571      11.60845569       0.00000232       0.00000026       0.00000064 
O       4.06918322      15.53549040      11.66144498       0.00000025       0.00000018       0.00000055 
H       3.77754860      15.96706106      10.83091972       0.00000017      -0.00000115       0.00000206 
H       3.81475360      14.59043163      11.64326682       0.00000055       0.00000287      -0.00000032 
O       3.25326991       8.75377336       9.33303234      -0.00000025      -0.00000016       0.00000055 
H       3.54491170       8.32219803       8.50251225      -0.00000017       0.00000114       0.00000205 
H       3.50770879       9.69883001       9.31485872      -0.00000055      -0.00000288      -0.00000032 
O       0.40796259      12.80198275      11.66144542       0.00000025      -0.00000014       0.00000056 
H       0.11632375      12.37041318      10.83092089       0.00000017       0.00000114       0.00000205 
H       0.15353457      13.74704220      11.64326959       0.00000055      -0.00000289      -0.00000032 
O       6.91450009      11.48727070       9.33303225      -0.00000025       0.00000016       0.00000054 
H       7.20614149      11.91884482       8.50251126      -0.00000017      -0.00000115       0.00000206 
H       7.16893239      10.54221220       9.31485754      -0.00000055       0.00000288      -0.00000032 
O       4.06761950      11.45169827      18.61156737       0.00000021      -0.00000022      -0.00000027 
H       3.78995469      11.93594611      19.41505198       0.00000088      -0.00000120      -0.00000164 
H       5.04506105      11.45768591      18.59373018      -0.00000233       0.00000026       0.00000064 
O       3.25484335      12.83755412      16.28315713      -0.00000022       0.00000020      -0.00000026 
H       3.53250845      12.35331298      17.08664572      -0.00000088       0.00000120      -0.00000164 
H       2.27740153      12.83156734      16.26532359       0.00000233      -0.00000026       0.00000064 
O       0.40637886       8.78934963      18.61156756       0.00000022       0.00000021      -0.00000025 
H       0.12871973       8.30510142      19.41505422       0.00000088       0.00000120      -0.00000164 
H       1.38381992       8.78336445      18.59372822      -0.00000234      -0.00000026       0.00000064 
O       6.91607912      15.49991899      16.28315807      -0.00000023      -0.00000021      -0.00000026 
H       7.19374101      15.98416034      17.08664799      -0.00000088      -0.00000120      -0.00000164 
H       5.93863811      15.50590492      16.26532290       0.00000234       0.00000026       0.00000064 
O       4.06918613      15.53548768      16.31831352       0.00000025       0.00000015       0.00000055 
H       3.77755502      15.96705261      15.48778437       0.00000017      -0.00000114       0.00000205 
H       3.81475747      14.59042833      16.30013990       0.00000055       0.00000289      -0.00000033 
O       3.25327639       8.75376714      13.98988091      -0.00000025      -0.00000015       0.00000057 
H       3.54490723       8.32220114      13.15935200      -0.00000017       0.00000114       0.00000205 
H       3.50770667       9.69882571      13.97170457      -0.00000055      -0.00000289      -0.00000032 
O       0.40796550      12.80198547      16.31831396       0.00000025      -0.00000014       0.00000057 
H       0.11633018      12.37042164      15.48778553       0.00000017       0.00000114       0.00000205 
H       0.15353844      13.74704549      16.30014266       0.00000055      -0.00000290      -0.00000033 
O       6.91450657      11.48727692      13.98988082      -0.00000025       0.00000016       0.00000055 
H       7.20613702      11.91884171      13.15935101      -0.00000017      -0.00000114       0.00000206 
H       7.16893027      10.54221650      13.97170339      -0.00000055       0.00000288      -0.00000033 
O       4.06762186      11.45169885      23.26835393       0.00000024      -0.00000022      -0.00000027 
H       3.78996096      11.93593779      24.07184527       0.00000088      -0.00000119      -0.00000163 
H       5.04506347      11.45768678      23.25051199      -0.00000234       0.00000026       0.00000064 
O       3.25483723      12.83756377      20.93995873      -0.00000023       0.00000023      -0.00000028 
H       3.53250088      12.35331720      21.74344425      -0.00000087       0.00000118      -0.00000162 
H       2.27739517      12.83157590      20.92211835       0.00000233      -0.00000026       0.00000064 
O       0.40638122       8.78934906      23.26835413       0.00000023       0.00000020      -0.00000026 
H       0.12872601       8.30510975      24.07184750       0.00000088       0.00000120      -0.00000164 
H       1.38382234       8.78336357      23.25051004      -0.00000234      -0.00000026       0.00000064 
O       6.91607300      15.49990934      20.93995967      -0.00000023      -0.00000020      -0.00000026 
H       7.19373344      15.98415612      21.74344652      -0.00000088      -0.00000120      -0.00000163 
H       5.93863174      15.50589635      20.92211765       0.00000234       0.00000026       0.00000064 
O       4.06919159      15.53548243      20.97511263       0.00000023       0.00000015       0.00000053 
H       3.77754994      15.96705645      20.14459199       0.00000018      -0.00000116       0.00000208 
H       3.81475501      14.59042489      20.95694119       0.00000055       0.00000290      -0.00000033 
O       3.25326762       8.75377545      18.64672298      -0.00000024      -0.00000012       0.00000056 
H       3.54490614       8.32220547      17.81619926      -0.00000017       0.00000115       0.00000206 
H       3.50770573       9.69883259      18.62855368      -0.00000056      -0.00000292      -0.00000033 
O       0.40797096      12.80199071      20.97511308       0.00000024      -0.00000013       0.00000054 
H       0.11632510      12.37041779      20.14459316       0.00000017       0.00000115       0.00000207 
H       0.15353598      13.74704893      20.95694395       0.00000056      -0.00000291      -0.00000033 
O       6.91449780      11.48726860      18.64672290      -0.00000023       0.00000014       0.00000052 
H       7.20613592      11.91883738      17.81619828      -0.00000018      -0.00000116       0.00000208 
H       7.16892933      10.54220962      18.62855251      -0.00000056       0.00000290      -0.00000033 
O       4.06761585      11.45170911      27.92519810       0.00000021      -0.00000022      -0.00000026 
H       3.78995359      11.93594180      28.72869303       0.00000088      -0.00000120      -0.00000164 
H       5.04505720      11.45769584      27.90736339      -0.00000233       0.00000026       0.00000064 
O       3.25484013      12.83755392      25.59676605      -0.00000022       0.00000021      -0.00000026 
H       3.53250135      12.35332222      26.40026167      -0.00000088       0.00000120      -0.00000164 
H       2.27739823      12.83156654      25.57892769       0.00000233      -0.00000026       0.00000064 
O       0.40637522       8.78933879      27.92519830       0.00000022       0.00000020      -0.00000025 
H       0.12871864       8.30510574      28.72869527       0.00000088       0.00000120      -0.00000164 
H       1.38381607       8.78335451      27.90736144      -0.00000234      -0.00000026       0.00000064 
O       6.91607590      15.49991919      25.59676699      -0.00000023      -0.00000021      -0.00000025 
H       7.19373391      15.98415110      26.40026393      -0.00000088      -0.00000120      -0.00000164 
H       5.93863481      15.50590571      25.57892699       0.00000234       0.00000026       0.00000064 
O       4.06918321      15.53549040      25.63191628       0.00000025       0.00000014       0.00000056 
H       3.77754859      15.96706106      24.80139102       0.00000017      -0.00000114       0.00000206 
H       3.81475360      14.59043163      25.61373812       0.00000055       0.00000289      -0.00000032 
O       3.25326991       8.75377336      23.30350364      -0.00000024      -0.00000016       0.00000053 
H       3.54491169       8.32219803      22.47298354      -0.00000018       0.00000115       0.00000208 
H       3.50770878       9.69883001      23.28533002      -0.00000055      -0.00000290      -0.00000033 