4224
Lattice="28.251554191297327 2.08172243404e-313 0.0 2.30107349874e-313 31.229694010238337 0.0 0.0 0.0 26.758121166773368" Properties=species:S:1:pos:R:3:forces:R:3 stress="-0.025017533621259434 -6.9120229e-316 -0.0 -6.9120229e-316 -0.02500646142268416 -0.0 -0.0 -0.0 -0.024990990540920497" cutoff=-1.0 energy=-459.570954682 nneightol=1.2 pbc="T T T"
O       3.92983622       3.23536552       4.45030082       0.00000005      -0.00000002       0.00000006 
H       3.64152918       3.72748592       5.25144597       0.00000005      -0.00000004      -0.00000008 
H       4.91070911       3.22828344       4.41251138      -0.00000011       0.00000003       0.00000002 
O       3.13291838       4.57192137       2.22045831      -0.00000005       0.00000001       0.00000004 
H       3.42122341       4.07979933       3.02160248      -0.00000005       0.00000006      -0.00000009 
H       2.15204715       4.57899770       2.18265993       0.00000011      -0.00000002       0.00000002 
O       0.39836218       0.66821088       4.45030362       0.00000004      -0.00000006      -0.00000000 
H       0.11006130       0.17609415       5.25145361       0.00000005       0.00000006      -0.00000006 
H       1.37923405       0.67529950       4.41251271      -0.00000011      -0.00000000       0.00000003 
O       6.66433404       7.13907892       2.22045546      -0.00000005       0.00000000       0.00000005 
H       6.95264496       7.63120477       3.02159486      -0.00000004      -0.00000006      -0.00000009 
H       5.68346182       7.13200874       2.18265858       0.00000011       0.00000002       0.00000002 
O       3.91526006       7.16482859       2.23713494       0.00000003      -0.00000004      -0.00000004 
H       3.64034972       7.61171505       1.40180549       0.00000003      -0.00000005       0.00000011 
H       3.66839729       6.21214433       2.24192798       0.00000003       0.00000012      -0.00000002 
O       3.14744455       0.64247571       0.00729688      -0.00000004       0.00000003      -0.00000005 
H       3.42234651       0.19558310      -0.82803316      -0.00000001       0.00000006       0.00000010 
H       3.39432076       1.59515723       0.01208325      -0.00000003      -0.00000013      -0.00000002 
O       0.38383461       4.54617477       2.23713727       0.00000004       0.00000003      -0.00000004 
H       0.10891693       4.09928493       1.40181201       0.00000002       0.00000005       0.00000010 
H       0.13696245       5.49885637       2.24193114       0.00000003      -0.00000013      -0.00000002 
O       6.67890661       3.26110420       0.00729457       0.00000000      -0.00000002      -0.00000003 
H       6.95380181       3.70799329      -0.82803951      -0.00000004      -0.00000006       0.00000010 
H       6.92577332       2.30842003       0.01208031      -0.00000003       0.00000013      -0.00000001 
O       3.92983622       3.23536553       8.90998768       0.00000005      -0.00000003       0.00000006 
H       3.64152917       3.72748593       9.71113282       0.00000006      -0.00000006      -0.00000009 
H       4.91070910       3.22828344       8.87219824      -0.00000011       0.00000003       0.00000001 
O       3.13291837       4.57192137       6.68014517      -0.00000005      -0.00000003       0.00000001 
H       3.42122341       4.07979933       7.48128934      -0.00000006       0.00000008      -0.00000006 
H       2.15204714       4.57899770       6.64234680       0.00000010      -0.00000001       0.00000003 
O       0.39836218       0.66821088       8.90999047       0.00000005       0.00000001       0.00000005 
H       0.11006130       0.17609414       9.71114046       0.00000005       0.00000006      -0.00000008 
H       1.37923405       0.67529950       8.87219957      -0.00000012      -0.00000002       0.00000001 
O       6.66433404       7.13907892       6.68014233      -0.00000005       0.00000003       0.00000002 
H       6.95264497       7.63120478       7.48128172      -0.00000005      -0.00000007      -0.00000007 
H       5.68346182       7.13200874       6.64234545       0.00000011       0.00000001       0.00000003 
O       3.91526006       7.16482859       6.69682180       0.00000004      -0.00000004      -0.00000005 
H       3.64034972       7.61171506       5.86149236       0.00000003      -0.00000005       0.00000011 
H       3.66839729       6.21214433       6.70161484       0.00000003       0.00000013      -0.00000001 
O       3.14744455       0.64247572       4.46698376      -0.00000005       0.00000003      -0.00000006 
H       3.42234651       0.19558310       3.63165372      -0.00000001       0.00000006       0.00000010 
H       3.39432076       1.59515724       4.47177013      -0.00000003      -0.00000013      -0.00000002 
O       0.38383461       4.54617477       6.69682414       0.00000005       0.00000003      -0.00000005 
H       0.10891693       4.09928493       5.86149888       0.00000001       0.00000005       0.00000010 
H       0.13696244       5.49885636       6.70161801       0.00000002      -0.00000014      -0.00000002 
O       6.67890661       3.26110419       4.46698145      -0.00000002      -0.00000003      -0.00000005 
H       6.95380179       3.70799328       3.63164737      -0.00000001      -0.00000005       0.00000010 
H       6.92577332       2.30842002       4.47176720      -0.00000002       0.00000012      -0.00000002 
O       3.92983622       3.23536553      13.36967452       0.00000005      -0.00000004       0.00000007 
H       3.64152917       3.72748593      14.17081966       0.00000006      -0.00000005      -0.00000009 
H       4.91070910       3.22828344      13.33188509      -0.00000012       0.00000004       0.00000001 
O       3.13291837       4.57192137      11.13983202      -0.00000005       0.00000003       0.00000007 
H       3.42122341       4.07979933      11.94097619      -0.00000006       0.00000006      -0.00000008 
H       2.15204714       4.57899770      11.10203365       0.00000011      -0.00000004       0.00000001 
O       0.39836218       0.66821088      13.36967731       0.00000005      -0.00000001       0.00000005 
H       0.11006130       0.17609414      14.17082730       0.00000006       0.00000006      -0.00000008 
H       1.37923405       0.67529951      13.33188642      -0.00000012      -0.00000002       0.00000001 
O       6.66433404       7.13907893      11.13982917      -0.00000005      -0.00000003       0.00000007 
H       6.95264497       7.63120478      11.94096857      -0.00000005      -0.00000006      -0.00000009 
H       5.68346182       7.13200874      11.10203230       0.00000012       0.00000004       0.00000001 
O       3.91526007       7.16482859      11.15650866       0.00000003      -0.00000004      -0.00000005 
H       3.64034972       7.61171506      10.32117921       0.00000003      -0.00000005       0.00000011 
H       3.66839729       6.21214434      11.16130170       0.00000003       0.00000012      -0.00000002 
O       3.14744455       0.64247572       8.92667062      -0.00000004       0.00000003      -0.00000005 
H       3.42234651       0.19558310       8.09134059      -0.00000002       0.00000006       0.00000011 
H       3.39432076       1.59515724       8.93145699      -0.00000003      -0.00000013      -0.00000003 
O       0.38383461       4.54617477      11.15651100       0.00000004       0.00000004      -0.00000006 
H       0.10891693       4.09928493      10.32118573       0.00000002       0.00000005       0.00000011 
H       0.13696244       5.49885636      11.16130486       0.00000002      -0.00000012      -0.00000002 
O       6.67890660       3.26110420       8.92666831      -0.00000003      -0.00000004      -0.00000005 
H       6.95380179       3.70799328       8.09133423      -0.00000002      -0.00000005       0.00000011 
H       6.92577331       2.30842003       8.93145406      -0.00000001       0.00000012      -0.00000003 
O       3.92983623       3.23536552      17.82936136       0.00000002      -0.00000000       0.00000001 
H       3.64152919       3.72748592      18.63050650       0.00000005      -0.00000003      -0.00000004 
H       4.91070911       3.22828343      17.79157191      -0.00000009       0.00000003       0.00000004 
O       3.13291837       4.57192137      15.59951886      -0.00000005       0.00000003       0.00000007 
H       3.42122341       4.07979933      16.40066303      -0.00000005       0.00000005      -0.00000008 
H       2.15204714       4.57899771      15.56172050       0.00000011      -0.00000004       0.00000001 
O       0.39836219       0.66821089      17.82936415       0.00000002      -0.00000004      -0.00000001 
H       0.11006131       0.17609415      18.63051413       0.00000005       0.00000005      -0.00000003 
H       1.37923406       0.67529951      17.79157324      -0.00000009      -0.00000001       0.00000005 
O       6.66433404       7.13907893      15.59951601      -0.00000005      -0.00000003       0.00000008 
H       6.95264496       7.63120478      16.40065541      -0.00000005      -0.00000004      -0.00000008 
H       5.68346181       7.13200873      15.56171914       0.00000012       0.00000004       0.00000001 
O       3.91526007       7.16482858      15.61619551       0.00000005      -0.00000003      -0.00000005 
H       3.64034973       7.61171506      14.78086607       0.00000002      -0.00000005       0.00000009 
H       3.66839729       6.21214433      15.62098854       0.00000002       0.00000011      -0.00000003 
O       3.14744455       0.64247572      13.38635747      -0.00000004       0.00000003      -0.00000006 
H       3.42234651       0.19558310      12.55102744      -0.00000001       0.00000006       0.00000010 
H       3.39432076       1.59515724      13.39114384      -0.00000003      -0.00000013      -0.00000003 
O       0.38383461       4.54617478      15.61619785       0.00000007       0.00000003      -0.00000006 
H       0.10891694       4.09928493      14.78087258       0.00000001       0.00000004       0.00000009 
H       0.13696244       5.49885637      15.62099171       0.00000002      -0.00000011      -0.00000003 
O       6.67890660       3.26110420      13.38635517      -0.00000003      -0.00000004      -0.00000006 
H       6.95380179       3.70799328      12.55102108      -0.00000001      -0.00000005       0.00000011 
H       6.92577332       2.30842002      13.39114091      -0.00000002       0.00000013      -0.00000002 
O       3.92983622       3.23536552      22.28904822       0.00000002      -0.00000001       0.00000002 
H       3.64152918       3.72748592      23.09019336       0.00000005      -0.00000003      -0.00000004 
H       4.91070910       3.22828344      22.25125877      -0.00000008       0.00000002       0.00000004 
O       3.13291837       4.57192137      20.05920571      -0.00000002      -0.00000001       0.00000000 
H       3.42122341       4.07979933      20.86034987      -0.00000004       0.00000005      -0.00000003 
H       2.15204715       4.57899770      20.02140732       0.00000007      -0.00000002       0.00000005 
O       0.39836218       0.66821089      22.28905101       0.00000001      -0.00000003      -0.00000001 
H       0.11006131       0.17609415      23.09020099       0.00000005       0.00000004      -0.00000003 
H       1.37923405       0.67529950      22.25126009      -0.00000008      -0.00000001       0.00000005 
O       6.66433404       7.13907892      20.05920286      -0.00000002       0.00000000       0.00000001 
H       6.95264496       7.63120477      20.86034226      -0.00000004      -0.00000003      -0.00000003 
H       5.68346182       7.13200874      20.02140597       0.00000008       0.00000002       0.00000004 
O       3.91526008       7.16482858      20.07588234       0.00000003       0.00000003       0.00000007 
H       3.64034972       7.61171507      19.24055291       0.00000002      -0.00000003       0.00000002 
H       3.66839729       6.21214433      20.08067537       0.00000003       0.00000006      -0.00000002 
O       3.14744454       0.64247572      17.84604430      -0.00000003      -0.00000002       0.00000005 
H       3.42234651       0.19558309      17.01071429      -0.00000001       0.00000004       0.00000002 
H       3.39432077       1.59515724      17.85083067      -0.00000003      -0.00000007      -0.00000002 
O       0.38383462       4.54617478      20.07588468       0.00000005      -0.00000004       0.00000007 
H       0.10891693       4.09928492      19.24055944      -0.00000000       0.00000003       0.00000000 
H       0.13696244       5.49885637      20.08067854       0.00000002      -0.00000007      -0.00000002 
O       6.67890660       3.26110419      17.84604200      -0.00000001       0.00000002       0.00000006 
H       6.95380180       3.70799329      17.01070793      -0.00000002      -0.00000004       0.00000002 
H       6.92577332       2.30842002      17.85082774      -0.00000002       0.00000007      -0.00000002 
O       3.92983622       3.23536553      26.74873510       0.00000005      -0.00000000       0.00000005 
H       3.64152918       3.72748593      27.54988025       0.00000005      -0.00000006      -0.00000008 
H       4.91070910       3.22828345      26.71094565      -0.00000011       0.00000002       0.00000003 
O       3.13291837       4.57192137      24.51889258      -0.00000003      -0.00000001       0.00000002 
H       3.42122341       4.07979934      25.32003675      -0.00000004       0.00000006      -0.00000005 
H       2.15204715       4.57899770      24.48109420       0.00000009      -0.00000001       0.00000005 
O       0.39836218       0.66821088      26.74873790       0.00000004      -0.00000004       0.00000003 
H       0.11006131       0.17609415      27.54988788       0.00000005       0.00000006      -0.00000007 
H       1.37923405       0.67529950      26.71094698      -0.00000011      -0.00000000       0.00000004 
O       6.66433404       7.13907892      24.51888973      -0.00000004       0.00000001       0.00000004 
H       6.95264495       7.63120477      25.32002914      -0.00000004      -0.00000005      -0.00000007 
H       5.68346182       7.13200874      24.48109285       0.00000011       0.00000002       0.00000004 
O       3.91526007       7.16482859      24.53556920       0.00000001      -0.00000001       0.00000000 
H       3.64034972       7.61171506      23.70023976       0.00000003      -0.00000006       0.00000011 
H       3.66839729       6.21214433      24.54036223       0.00000003       0.00000011      -0.00000000 
O       3.14744455       0.64247572      22.30573116      -0.00000006      -0.00000000       0.00000004 
H       3.42234651       0.19558309      21.47040113       0.00000000       0.00000004       0.00000003 
H       3.39432077       1.59515723      22.31051752      -0.00000002      -0.00000009      -0.00000001 
O       0.38383463       4.54617478      24.53557155       0.00000002      -0.00000003       0.00000007 
H       0.10891693       4.09928492      23.70024630       0.00000001       0.00000004       0.00000001 
H       0.13696244       5.49885636      24.54036541       0.00000003      -0.00000007      -0.00000002 
O       6.67890660       3.26110420      22.30572885      -0.00000004       0.00000000       0.00000005 
H       6.95380180       3.70799329      21.47039478       0.00000001      -0.00000004       0.00000002 
H       6.92577332       2.30842002      22.31051459      -0.00000001       0.00000008      -0.00000001 
O       3.92983584      11.04278836       4.45029991       0.00000005       0.00000000       0.00000006 
H       3.64152967      11.53490691       5.25144633       0.00000005      -0.00000006      -0.00000009 
H       4.91070866      11.03570327       4.41251098      -0.00000012       0.00000001       0.00000002 
O       3.13291799      12.37934421       2.22045923      -0.00000005      -0.00000003       0.00000003 
H       3.42122390      11.88722032       3.02160213      -0.00000005       0.00000008      -0.00000008 
H       2.15204670      12.38641755       2.18266033       0.00000011      -0.00000001       0.00000003 
O       0.39836320       8.47563329       4.45030094       0.00000005      -0.00000002       0.00000004 
H       0.11006034       7.98351160       5.25144744       0.00000005       0.00000008      -0.00000008 
H       1.37923510       8.48271398       4.41250938      -0.00000012      -0.00000001       0.00000002 
O       6.66433506      14.94650135       2.22045814      -0.00000005       0.00000003       0.00000003 
H       6.95264399      15.43862226       3.02160102      -0.00000005      -0.00000008      -0.00000008 
H       5.68346286      14.93942323       2.18266191       0.00000012       0.00000001       0.00000003 
O       3.91525885      14.97224324       2.23713835       0.00000002      -0.00000002      -0.00000004 
H       3.64034972      15.41913415       1.40181121       0.00000003      -0.00000005       0.00000011 
H       3.66839443      14.01955847       2.24192824       0.00000003       0.00000014      -0.00000002 
O       3.14744333       8.44989038       0.00729346      -0.00000004       0.00000002      -0.00000005 
H       3.42234650       8.00300223      -0.82803888      -0.00000002       0.00000005       0.00000010 
H       3.39431788       9.40257140       0.01208298      -0.00000003      -0.00000014      -0.00000001 
O       0.38383633      12.35360035       2.23713831       0.00000003       0.00000002      -0.00000004 
H       0.10891808      11.90671255       1.40181251       0.00000003       0.00000004       0.00000011 
H       0.13696801      13.30628381       2.24193224       0.00000003      -0.00000014      -0.00000002 
O       6.67890833      11.06852975       0.00729355      -0.00000001      -0.00000003      -0.00000004 
H       6.95380296      11.51542089      -0.82803999      -0.00000003      -0.00000005       0.00000009 
H       6.92577889      10.11584744       0.01207922      -0.00000003       0.00000013      -0.00000002 
O       3.92983584      11.04278837       8.90998677       0.00000005      -0.00000002       0.00000006 
H       3.64152967      11.53490691       9.71113319       0.00000006      -0.00000006      -0.00000009 
H       4.91070866      11.03570327       8.87219784      -0.00000012       0.00000002       0.00000001 
O       3.13291799      12.37934421       6.68014610      -0.00000005      -0.00000005       0.00000000 
H       3.42122390      11.88722032       7.48128899      -0.00000005       0.00000009      -0.00000006 
H       2.15204670      12.38641755       6.64234720       0.00000011      -0.00000001       0.00000004 
O       0.39836320       8.47563329       8.90998779       0.00000005       0.00000001       0.00000005 
H       0.11006033       7.98351160       9.71113429       0.00000006       0.00000007      -0.00000009 
H       1.37923510       8.48271398       8.87219624      -0.00000012      -0.00000002       0.00000001 
O       6.66433506      14.94650134       6.68014501      -0.00000004       0.00000006      -0.00000000 
H       6.95264399      15.43862226       7.48128788      -0.00000005      -0.00000008      -0.00000006 
H       5.68346286      14.93942323       6.64234877       0.00000010       0.00000001       0.00000004 
O       3.91525884      14.97224324       6.69682522       0.00000005      -0.00000002      -0.00000005 
H       3.64034972      15.41913416       5.86149808       0.00000002      -0.00000006       0.00000010 
H       3.66839443      14.01955847       6.70161511       0.00000002       0.00000014      -0.00000001 
O       3.14744333       8.44989039       4.46698034      -0.00000004       0.00000003      -0.00000007 
H       3.42234650       8.00300224       3.63164800      -0.00000002       0.00000005       0.00000011 
H       3.39431788       9.40257141       4.47176986      -0.00000002      -0.00000015      -0.00000001 
O       0.38383632      12.35360035       6.69682518       0.00000004       0.00000002      -0.00000005 
H       0.10891808      11.90671255       5.86149938       0.00000002       0.00000005       0.00000011 
H       0.13696801      13.30628381       6.70161911       0.00000003      -0.00000015      -0.00000002 
O       6.67890833      11.06852974       4.46698042       0.00000000      -0.00000003      -0.00000006 
H       6.95380296      11.51542088       3.63164688      -0.00000004      -0.00000005       0.00000011 
H       6.92577889      10.11584743       4.47176609      -0.00000004       0.00000014      -0.00000002 
O       3.92983584      11.04278837      13.36967361       0.00000005      -0.00000001       0.00000006 
H       3.64152967      11.53490691      14.17082003       0.00000005      -0.00000006      -0.00000009 
H       4.91070866      11.03570327      13.33188468      -0.00000012       0.00000002       0.00000001 
O       3.13291799      12.37934421      11.13983294      -0.00000005       0.00000001       0.00000005 
H       3.42122390      11.88722032      11.94097584      -0.00000005       0.00000007      -0.00000008 
H       2.15204669      12.38641756      11.10203406       0.00000012      -0.00000002       0.00000001 
O       0.39836320       8.47563329      13.36967463       0.00000005       0.00000001       0.00000006 
H       0.11006033       7.98351160      14.17082114       0.00000006       0.00000007      -0.00000008 
H       1.37923510       8.48271398      13.33188309      -0.00000012      -0.00000002       0.00000001 
O       6.66433507      14.94650135      11.13983185      -0.00000004      -0.00000000       0.00000005 
H       6.95264400      15.43862226      11.94097473      -0.00000006      -0.00000007      -0.00000008 
H       5.68346287      14.93942323      11.10203563       0.00000011       0.00000002       0.00000002 
O       3.91525885      14.97224324      11.15651207       0.00000003      -0.00000003      -0.00000006 
H       3.64034972      15.41913416      10.32118493       0.00000003      -0.00000005       0.00000011 
H       3.66839443      14.01955847      11.16130197       0.00000003       0.00000013      -0.00000003 
O       3.14744333       8.44989039       8.92666720      -0.00000004       0.00000003      -0.00000005 
H       3.42234650       8.00300223       8.09133486      -0.00000002       0.00000005       0.00000011 
H       3.39431788       9.40257140       8.93145673      -0.00000002      -0.00000014      -0.00000003 
O       0.38383633      12.35360035      11.15651203       0.00000002       0.00000003      -0.00000005 
H       0.10891809      11.90671255      10.32118624       0.00000002       0.00000005       0.00000012 
H       0.13696800      13.30628381      11.16130596       0.00000004      -0.00000014      -0.00000002 
O       6.67890833      11.06852975       8.92666729       0.00000001      -0.00000003      -0.00000004 
H       6.95380296      11.51542088       8.09133374      -0.00000005      -0.00000006       0.00000012 
H       6.92577890      10.11584744       8.93145296      -0.00000004       0.00000014      -0.00000003 
O       3.92983584      11.04278836      17.82936045       0.00000003       0.00000003       0.00000000 
H       3.64152968      11.53490691      18.63050686       0.00000005      -0.00000005      -0.00000004 
H       4.91070866      11.03570327      17.79157151      -0.00000009       0.00000001       0.00000005 
O       3.13291799      12.37934421      15.59951978      -0.00000005      -0.00000001       0.00000004 
H       3.42122389      11.88722032      16.40066268      -0.00000004       0.00000006      -0.00000006 
H       2.15204669      12.38641756      15.56172088       0.00000011      -0.00000003       0.00000004 
O       0.39836321       8.47563330      17.82936147       0.00000002      -0.00000002       0.00000001 
H       0.11006034       7.98351161      18.63050797       0.00000005       0.00000005      -0.00000003 
H       1.37923510       8.48271399      17.79156991      -0.00000009      -0.00000002       0.00000004 
O       6.66433506      14.94650134      15.59951869      -0.00000004      -0.00000000       0.00000004 
H       6.95264399      15.43862225      16.40066156      -0.00000005      -0.00000005      -0.00000006 
H       5.68346287      14.93942322      15.56172246       0.00000010       0.00000003       0.00000004 
O       3.91525885      14.97224323      15.61619892       0.00000005      -0.00000001      -0.00000005 
H       3.64034972      15.41913416      14.78087179       0.00000002      -0.00000005       0.00000009 
H       3.66839443      14.01955847      15.62098881       0.00000002       0.00000013      -0.00000003 
O       3.14744333       8.44989039      13.38635406      -0.00000003       0.00000003      -0.00000006 
H       3.42234651       8.00300224      12.55102172      -0.00000003       0.00000005       0.00000011 
H       3.39431788       9.40257141      13.39114358      -0.00000003      -0.00000014      -0.00000002 
O       0.38383633      12.35360035      15.61619887       0.00000006      -0.00000000      -0.00000003 
H       0.10891809      11.90671254      14.78087308       0.00000001       0.00000004       0.00000009 
H       0.13696801      13.30628381      15.62099281       0.00000002      -0.00000009      -0.00000003 
O       6.67890833      11.06852974      13.38635413       0.00000001      -0.00000002      -0.00000005 
H       6.95380296      11.51542089      12.55102059      -0.00000004      -0.00000005       0.00000010 
H       6.92577890      10.11584744      13.39113980      -0.00000004       0.00000013      -0.00000003 
O       3.92983584      11.04278836      22.28904731       0.00000002       0.00000002       0.00000001 
H       3.64152968      11.53490691      23.09019373       0.00000004      -0.00000005      -0.00000004 
H       4.91070866      11.03570327      22.25125837      -0.00000008       0.00000001       0.00000005 
O       3.13291800      12.37934421      20.05920663      -0.00000002      -0.00000001      -0.00000000 
H       3.42122390      11.88722033      20.86034953      -0.00000004       0.00000005      -0.00000003 
H       2.15204670      12.38641755      20.02140772       0.00000008      -0.00000001       0.00000005 
O       0.39836320       8.47563330      22.28904833       0.00000002      -0.00000002       0.00000000 
H       0.11006034       7.98351161      23.09019483       0.00000005       0.00000005      -0.00000003 
H       1.37923510       8.48271398      22.25125677      -0.00000008      -0.00000001       0.00000005 
O       6.66433507      14.94650134      20.05920554      -0.00000001      -0.00000000       0.00000000 
H       6.95264400      15.43862225      20.86034841      -0.00000005      -0.00000003      -0.00000003 
H       5.68346287      14.93942323      20.02140930       0.00000007       0.00000002       0.00000005 
O       3.91525886      14.97224324      20.07588575       0.00000004       0.00000002       0.00000006 
H       3.64034972      15.41913418      19.24055863       0.00000001      -0.00000004       0.00000002 
H       3.66839443      14.01955848      20.08067564       0.00000003       0.00000008      -0.00000002 
O       3.14744332       8.44989040      17.84604089      -0.00000004      -0.00000002       0.00000005 
H       3.42234651       8.00300223      17.01070856      -0.00000002       0.00000003       0.00000003 
H       3.39431788       9.40257141      17.85083041      -0.00000002      -0.00000009      -0.00000001 
O       0.38383634      12.35360035      20.07588571       0.00000005      -0.00000004       0.00000008 
H       0.10891808      11.90671253      19.24055994       0.00000000       0.00000003       0.00000000 
H       0.13696801      13.30628380      20.08067964       0.00000003      -0.00000005      -0.00000002 
O       6.67890832      11.06852973      17.84604097       0.00000001       0.00000003       0.00000007 
H       6.95380296      11.51542089      17.01070744      -0.00000004      -0.00000003       0.00000002 
H       6.92577890      10.11584743      17.85082664      -0.00000004       0.00000008      -0.00000002 
O       3.92983583      11.04278836      26.74873419       0.00000005       0.00000002       0.00000005 
H       3.64152967      11.53490691      27.54988062       0.00000004      -0.00000006      -0.00000008 
H       4.91070865      11.03570327      26.71094526      -0.00000011       0.00000001       0.00000004 
O       3.13291800      12.37934421      24.51889350      -0.00000003      -0.00000002       0.00000001 
H       3.42122390      11.88722033      25.32003641      -0.00000004       0.00000006      -0.00000005 
H       2.15204670      12.38641755      24.48109460       0.00000009      -0.00000001       0.00000005 
O       0.39836320       8.47563329      26.74873522       0.00000005      -0.00000002       0.00000003 
H       0.11006034       7.98351160      27.54988172       0.00000005       0.00000008      -0.00000007 
H       1.37923509       8.48271397      26.71094365      -0.00000011      -0.00000000       0.00000004 
O       6.66433507      14.94650134      24.51889241      -0.00000003       0.00000003       0.00000002 
H       6.95264399      15.43862225      25.32003529      -0.00000004      -0.00000006      -0.00000005 
H       5.68346287      14.93942323      24.48109617       0.00000009       0.00000001       0.00000005 
O       3.91525886      14.97224325      24.53557262       0.00000002      -0.00000002      -0.00000001 
H       3.64034973      15.41913417      23.70024548       0.00000002      -0.00000006       0.00000011 
H       3.66839443      14.01955848      24.54036250       0.00000003       0.00000013      -0.00000001 
O       3.14744333       8.44989039      22.30572774      -0.00000005      -0.00000001       0.00000003 
H       3.42234651       8.00300222      21.47039541      -0.00000000       0.00000003       0.00000003 
H       3.39431788       9.40257140      22.31051726      -0.00000003      -0.00000010      -0.00000001 