4224
Lattice="28.628187126783317 1.9583384693e-313 0.0 2.16676560485e-313 31.618166823496466 0.0 0.0 0.0 27.1719808692979" Properties=species:S:1:pos:R:3:forces:R:3 stress="-0.017745610059280107 -6.63466537e-316 -0.0 -6.63466537e-316 -0.01761596666925344 -0.0 -0.0 -0.0 -0.017104956328418377" cutoff=-1.0 energy=-478.431080456 nneightol=1.2 pbc="T T T"
O       3.98025916       3.27545977       4.51691113       0.00000012      -0.00000019      -0.00000061 
H       3.69597479       3.76434860       5.31879659       0.00000123      -0.00000203      -0.00000239 
H       4.95975416       3.27355060       4.48677753      -0.00000308       0.00000097       0.00000137 
O       3.17682085       4.62906355       2.25257999      -0.00000070       0.00000003      -0.00000073 
H       3.46110442       4.14018027       3.05446933      -0.00000172       0.00000164      -0.00000267 
H       2.19732599       4.63097394       2.22244955       0.00000251      -0.00000121       0.00000117 
O       0.40173554       0.67679787       4.51691062       0.00000014      -0.00000041      -0.00000014 
H       0.11745140       0.18790894       5.31879610       0.00000118       0.00000157      -0.00000184 
H       1.38123056       0.67870714       4.48677689      -0.00000309      -0.00000170       0.00000195 
O       6.75534427       7.22773525       2.25257963      -0.00000104       0.00000050      -0.00000030 
H       7.03962772       7.71661868       3.05446893      -0.00000183      -0.00000125      -0.00000224 
H       5.77584941       7.22582495       2.22244907       0.00000216       0.00000187       0.00000198 
O       3.97291309       7.25738314       2.27541121      -0.00000007      -0.00000024       0.00000103 
H       3.69066423       7.69828599       1.44237047      -0.00000040      -0.00000192       0.00000346 
H       3.72223551       6.30792166       2.27181013      -0.00000041       0.00000313      -0.00000103 
O       3.18416758       0.64714215       0.01106658      -0.00000060      -0.00000094      -0.00000024 
H       3.46641455       0.20624012      -0.82197559      -0.00000017       0.00000148       0.00000178 
H       3.43484351       1.59660384       0.00746286      -0.00000139      -0.00000410      -0.00000211 
O       0.39438975       4.59941638       2.27541151       0.00000001      -0.00000031       0.00000007 
H       0.11214072       4.15851344       1.44237090      -0.00000065       0.00000156       0.00000248 
H       0.14371205       5.54887787       2.27181041      -0.00000017      -0.00000371      -0.00000193 
O       6.76269129       3.30511526       0.01106693      -0.00000097       0.00000086      -0.00000009 
H       7.04493797       3.74601700      -0.82197551      -0.00000037      -0.00000118       0.00000219 
H       7.01336662       2.35565342       0.00746307      -0.00000088       0.00000425      -0.00000173 
O       3.98026098       3.27545926       9.04554762       0.00000064      -0.00000000      -0.00000010 
H       3.69597812       3.76434372       9.84743602       0.00000162      -0.00000180      -0.00000191 
H       4.95975604       3.27355162       9.01541172      -0.00000255       0.00000092       0.00000201 
O       3.17681487       4.62907113       6.78122908      -0.00000037       0.00000000      -0.00000045 
H       3.46109856       4.14018195       7.58311436      -0.00000144       0.00000173      -0.00000230 
H       2.19731976       4.63097941       6.75109302       0.00000284      -0.00000125       0.00000136 
O       0.40173769       0.67679835       9.04554768       0.00000038      -0.00000023      -0.00000047 
H       0.11745498       0.18791394       9.84743618       0.00000129       0.00000177      -0.00000221 
H       1.38123278       0.67870597       9.01541183      -0.00000283      -0.00000143       0.00000170 
O       6.75533849       7.22772836       6.78122911      -0.00000066       0.00000021      -0.00000045 
H       7.03962218       7.71661733       7.58311450      -0.00000163      -0.00000129      -0.00000247 
H       5.77584338       7.22582010       6.75109307       0.00000256       0.00000154       0.00000154 
O       3.97291524       7.25738021       6.80405311       0.00000007       0.00000011       0.00000078 
H       3.69065995       7.69828841       5.97101718      -0.00000059      -0.00000179       0.00000320 
H       3.72223221       6.30791990       6.80045585      -0.00000010       0.00000346      -0.00000091 
O       3.18416101       0.64714852       4.53973822      -0.00000043      -0.00000032       0.00000029 
H       3.46641474       0.20624232       3.70670100      -0.00000007       0.00000157       0.00000256 
H       3.43484280       1.59660917       4.53614061      -0.00000068      -0.00000355      -0.00000177 
O       0.39439153       4.59941976       6.80405326       0.00000047      -0.00000132      -0.00000015 
H       0.11213590       4.15851173       5.97101738      -0.00000014       0.00000061       0.00000217 
H       0.14370862       5.54888014       6.80045627       0.00000034      -0.00000476      -0.00000204 
O       6.76268498       3.30510884       4.53973861      -0.00000103       0.00000029       0.00000027 
H       7.04493885       3.74601511       3.70670146      -0.00000062      -0.00000178       0.00000251 
H       7.01336666       2.35564815       4.53614073      -0.00000107       0.00000363      -0.00000157 
O       3.98025580       3.27546613      13.57422373       0.00000026       0.00000054       0.00000021 
H       3.69597322       3.76434430      14.37611648       0.00000131      -0.00000112      -0.00000163 
H       4.95975065       3.27355604      13.54409397      -0.00000298       0.00000160       0.00000215 
O       3.17681696       4.62906489      11.30987910      -0.00000054       0.00000009      -0.00000047 
H       3.46109948       4.14018570      12.11177103      -0.00000164       0.00000220      -0.00000211 
H       2.19732200       4.63097328      11.27974662       0.00000264      -0.00000112       0.00000146 
O       0.40173251       0.67679024      13.57422436       0.00000019       0.00000055      -0.00000122 
H       0.11744979       0.18791212      14.37611711       0.00000110       0.00000236      -0.00000311 
H       1.38122735       0.67870010      13.54409475      -0.00000302      -0.00000056       0.00000082 
O       6.75534024       7.22773462      11.30987946      -0.00000015      -0.00000014      -0.00000080 
H       7.03962274       7.71661341      12.11177163      -0.00000135      -0.00000183      -0.00000264 
H       5.77584526       7.22582613      11.27974705       0.00000309       0.00000107       0.00000103 
O       3.97290843       7.25738678      11.33270638       0.00000036       0.00000010       0.00000047 
H       3.69065960       7.69829094      10.49966561      -0.00000044      -0.00000190       0.00000287 
H       3.72223106       6.30792551      11.32910354       0.00000020       0.00000345      -0.00000122 
O       3.18416404       0.64714481       9.06837059      -0.00000031       0.00000029       0.00000070 
H       3.46641749       0.20623759       8.23533313       0.00000013       0.00000192       0.00000318 
H       3.43484496       1.59660538       9.06477126      -0.00000007      -0.00000303      -0.00000139 
O       0.39438469       4.59941268      11.33270626       0.00000100      -0.00000098       0.00000017 
H       0.11213547       4.15850883      10.49966547       0.00000062       0.00000084       0.00000247 
H       0.14370750       5.54887400      11.32910377       0.00000078      -0.00000442      -0.00000176 
O       6.76268773       3.30511225       9.06837049      -0.00000078      -0.00000010       0.00000124 
H       7.04494143       3.74601978       8.23533326      -0.00000036      -0.00000220       0.00000354 
H       7.01336899       2.35565174       9.06477088      -0.00000087       0.00000319      -0.00000077 
O       3.98025908       3.27545895      18.10290147       0.00000013       0.00000051      -0.00000060 
H       3.69597489       3.76434757      18.90478716       0.00000118      -0.00000120      -0.00000248 
H       4.95975410       3.27354973      18.07276797      -0.00000308       0.00000173       0.00000136 
O       3.17682052       4.62906337      15.83856981      -0.00000069       0.00000010      -0.00000024 
H       3.46110405       4.14017963      16.64045886      -0.00000152       0.00000214      -0.00000198 
H       2.19732566       4.63097361      15.80843922       0.00000251      -0.00000120       0.00000188 
O       0.40173579       0.67679661      18.10290182      -0.00000027       0.00000109      -0.00000136 
H       0.11745139       0.18790787      18.90478733       0.00000086       0.00000276      -0.00000326 
H       1.38123081       0.67870563      18.07276831      -0.00000349       0.00000011       0.00000047 
O       6.75534325       7.22773519      15.83857024       0.00000026       0.00000011      -0.00000050 
H       7.03962681       7.71661872      16.64045940      -0.00000091      -0.00000179      -0.00000217 
H       5.77584837       7.22582486      15.80843975       0.00000352       0.00000123       0.00000133 
O       3.97291223       7.25738244      15.86140175       0.00000012       0.00000035       0.00000034 
H       3.69066317       7.69828540      15.02836117      -0.00000069      -0.00000167       0.00000273 
H       3.72223468       6.30792092      15.85780063      -0.00000008       0.00000373      -0.00000150 
O       3.18416747       0.64714090      13.59705676      -0.00000078       0.00000064       0.00000063 
H       3.46641398       0.20623915      12.76401424      -0.00000001       0.00000238       0.00000319 
H       3.43484269       1.59660271      13.59345276      -0.00000057      -0.00000269      -0.00000131 
O       0.39438903       4.59941586      15.86140142       0.00000041       0.00000016       0.00000087 
H       0.11213970       4.15851298      15.02836088       0.00000008       0.00000201       0.00000319 
H       0.14371134       5.54887732      15.85780043       0.00000024      -0.00000318      -0.00000109 
O       6.76269052       3.30511516      13.59705643      -0.00000028       0.00000059       0.00000094 
H       7.04493694       3.74601697      12.76401393       0.00000043      -0.00000137       0.00000336 
H       7.01336584       2.35565336      13.59345250      -0.00000029       0.00000389      -0.00000104 
O       3.98026196       3.27545854      22.63153886      -0.00000019       0.00000005      -0.00000099 
H       3.69597909       3.76434275      23.43342745       0.00000079      -0.00000164      -0.00000292 
H       4.95975706       3.27355095      22.60140316      -0.00000341       0.00000123       0.00000100 
O       3.17681566       4.62907024      20.36721962      -0.00000052      -0.00000010      -0.00000046 
H       3.46109917       4.14018117      21.16910500      -0.00000129       0.00000153      -0.00000243 
H       2.19732054       4.63097865      20.33708346       0.00000274      -0.00000160       0.00000168 
O       0.40173858       0.67679770      22.63153863      -0.00000076       0.00000065      -0.00000051 
H       0.11745561       0.18791325      23.43342700       0.00000049       0.00000223      -0.00000236 
H       1.38123368       0.67870545      22.60140288      -0.00000404      -0.00000040       0.00000112 
O       6.75533850       7.22772774      20.36721968      -0.00000010       0.00000059      -0.00000017 
H       7.03962202       7.71661709      21.16910489      -0.00000108      -0.00000146      -0.00000181 
H       5.77584339       7.22581943      20.33708348       0.00000315       0.00000182       0.00000188 
O       3.97291543       7.25737948      20.39004358      -0.00000019       0.00000054       0.00000031 
H       3.69066000       7.69828751      19.55700763      -0.00000092      -0.00000127       0.00000275 
H       3.72223268       6.30791909      20.38644658      -0.00000032       0.00000392      -0.00000171 
O       3.18416157       0.64714755      18.12572930      -0.00000111       0.00000080       0.00000018 
H       3.46641551       0.20624125      17.29269219      -0.00000047       0.00000290       0.00000253 
H       3.43484347       1.59660818      18.12213147      -0.00000126      -0.00000246      -0.00000184 
O       0.39439265       4.59941859      20.39004333      -0.00000064       0.00000053       0.00000086 
H       0.11213723       4.15851033      19.55700748      -0.00000133       0.00000239       0.00000332 
H       0.14370965       5.54887889      20.38644614      -0.00000068      -0.00000275      -0.00000104 
O       6.76268477       3.30510832      18.12572911      -0.00000089       0.00000079       0.00000037 
H       7.04493819       3.74601426      17.29269166      -0.00000027      -0.00000097       0.00000281 
H       7.01336626       2.35564759      18.12213151      -0.00000063       0.00000416      -0.00000157 
O       3.98025686       3.27546623      27.16021506      -0.00000060      -0.00000011      -0.00000070 
H       3.69597410       3.76434437      27.96210779       0.00000054      -0.00000179      -0.00000254 
H       4.95975173       3.27355623      27.13008540      -0.00000385       0.00000114       0.00000115 
O       3.17681809       4.62906418      24.89587025      -0.00000071      -0.00000009      -0.00000096 
H       3.46110046       4.14018557      25.69776258      -0.00000169       0.00000151      -0.00000292 
H       2.19732311       4.63097284      24.86573783       0.00000252      -0.00000148       0.00000107 
O       0.40173313       0.67679086      27.16021453      -0.00000054      -0.00000006      -0.00000003 
H       0.11745044       0.18791250      27.96210714       0.00000062       0.00000162      -0.00000184 
H       1.38122800       0.67870108      27.13008482      -0.00000381      -0.00000134       0.00000172 
O       6.75534127       7.22773406      24.89586986      -0.00000088       0.00000063      -0.00000033 
H       7.03962349       7.71661313      25.69776197      -0.00000172      -0.00000146      -0.00000205 
H       5.77584631       7.22582554      24.86573722       0.00000232       0.00000199       0.00000201 
O       3.97290947       7.25738675      24.91869673      -0.00000009      -0.00000007       0.00000068 
H       3.69066070       7.69829063      24.08565579      -0.00000047      -0.00000163       0.00000316 
H       3.72223237       6.30792544      24.91509421      -0.00000035       0.00000331      -0.00000155 
O       3.18416472       0.64714509      22.65436194      -0.00000082      -0.00000017      -0.00000028 
H       3.46641882       0.20623750      21.82132492      -0.00000041       0.00000234       0.00000173 
H       3.43484646       1.59660553      22.65076265      -0.00000147      -0.00000335      -0.00000226 
O       0.39438653       4.59941202      24.91869685      -0.00000051       0.00000040       0.00000038 
H       0.11213782       4.15850788      24.08565603      -0.00000130       0.00000217       0.00000292 
H       0.14370923       5.54887329      24.91509406      -0.00000066      -0.00000293      -0.00000159 
O       6.76268829       3.30511182      22.65436193      -0.00000133       0.00000067       0.00000032 
H       7.04494181       3.74601896      21.82132446      -0.00000081      -0.00000120       0.00000267 
H       7.01336937       2.35565124      22.65076266      -0.00000102       0.00000408      -0.00000145 
O       3.98025929      11.18000167       4.51691067      -0.00000056      -0.00000001      -0.00000024 
H       3.69597517      11.66889055       5.31879618       0.00000035      -0.00000194      -0.00000198 
H       4.95975430      11.17809266       4.48677679      -0.00000380       0.00000069       0.00000204 
O       3.17682074      12.53360606       2.25257958      -0.00000151      -0.00000061      -0.00000089 
H       3.46110448      12.04472275       3.05446886      -0.00000242       0.00000129      -0.00000273 
H       2.19732590      12.53551623       2.22244924       0.00000163      -0.00000190       0.00000128 
O       0.40173568       8.58133925       4.51691091       0.00000002       0.00000008      -0.00000044 
H       0.11745132       8.09245071       5.31879655       0.00000112       0.00000148      -0.00000245 
H       1.38123068       8.58324850       4.48677735      -0.00000318      -0.00000102       0.00000140 
O       6.75534406      15.13227774       2.25257971      -0.00000064      -0.00000039      -0.00000053 
H       7.03962772      15.62116138       3.05446880      -0.00000165      -0.00000225      -0.00000235 
H       5.77584918      15.13036753       2.22244917       0.00000260       0.00000081       0.00000156 
O       3.97291330      15.16192538       2.27541123      -0.00000060      -0.00000108      -0.00000004 
H       3.69066395      15.60282863       1.44237087      -0.00000093      -0.00000325       0.00000211 
H       3.72223512      14.21246406       2.27181025       0.00000000       0.00000202      -0.00000208 
O       3.18416834       8.55168344       0.01106604      -0.00000089       0.00000006       0.00000136 
H       3.46641481       8.11078158      -0.82197644      -0.00000018       0.00000201       0.00000383 
H       3.43484346       9.50114528       0.00746196      -0.00000077      -0.00000326      -0.00000074 
O       0.39438895      12.50395804       2.27541083       0.00000043      -0.00000025       0.00000095 
H       0.11214007      12.06305519       1.44237010       0.00000004       0.00000144       0.00000338 
H       0.14371129      13.45341949       2.27180975       0.00000028      -0.00000355      -0.00000096 
O       6.76269104      11.20965792       0.01106640      -0.00000072      -0.00000064       0.00000065 
H       7.04493763      11.65055983      -0.82197599      -0.00000002      -0.00000262       0.00000308 
H       7.01336639      10.26019612       0.00746249      -0.00000065       0.00000269      -0.00000156 
O       3.98026147      11.18000084       9.04554771      -0.00000009       0.00000004      -0.00000016 
H       3.69597869      11.66888526       9.84743616       0.00000085      -0.00000174      -0.00000198 
H       4.95975656      11.17809318       9.01541177      -0.00000332       0.00000108       0.00000195 
O       3.17681521      12.53361277       6.78122900      -0.00000093      -0.00000009      -0.00000080 
H       3.46109909      12.04472367       7.58311426      -0.00000202       0.00000183      -0.00000255 
H       2.19732012      12.53552072       6.75109305       0.00000224      -0.00000128       0.00000113 
O       0.40173759       8.58133978       9.04554819       0.00000056       0.00000037      -0.00000056 
H       0.11745459       8.09245547       9.84743666       0.00000166       0.00000191      -0.00000252 
H       1.38123266       8.58324750       9.01541248      -0.00000262      -0.00000085       0.00000119 
O       6.75533893      15.13227039       6.78122891      -0.00000096      -0.00000017      -0.00000055 
H       7.03962260      15.62115965       7.58311415      -0.00000182      -0.00000194      -0.00000247 
H       5.77584385      15.13036227       6.75109270       0.00000222       0.00000105       0.00000167 
O       3.97291546      15.16192232       6.80405278      -0.00000007      -0.00000070       0.00000064 
H       3.69065987      15.60283066       5.97101703      -0.00000055      -0.00000269       0.00000297 
H       3.72223221      14.21246210       6.80045571       0.00000020       0.00000250      -0.00000148 
O       3.18416169       8.55169021       4.53973829      -0.00000107      -0.00000010       0.00000092 
H       3.46641535       8.11078406       3.70670101      -0.00000058       0.00000170       0.00000334 
H       3.43484324       9.50115091       4.53614047      -0.00000114      -0.00000339      -0.00000129 
O       0.39439122      12.50396052       6.80405276       0.00000055       0.00000010       0.00000083 
H       0.11213573      12.06305245       5.97101682      -0.00000008       0.00000185       0.00000331 
H       0.14370828      13.45342083       6.80045565       0.00000033      -0.00000323      -0.00000109 
O       6.76268482      11.20965111       4.53973838      -0.00000092      -0.00000038       0.00000088 
H       7.04493847      11.65055724       3.70670109      -0.00000037      -0.00000219       0.00000335 
H       7.01336633      10.26019040       4.53614065      -0.00000075       0.00000297      -0.00000146 
O       3.98025610      11.18000817      13.57422424      -0.00000005      -0.00000007      -0.00000046 
H       3.69597337      11.66888638      14.37611692       0.00000113      -0.00000172      -0.00000231 
H       4.95975096      11.17809801      13.54409466      -0.00000329       0.00000140       0.00000125 
O       3.17681733      12.53360624      11.30987937      -0.00000065       0.00000023      -0.00000075 
H       3.46109997      12.04472741      12.11177148      -0.00000180       0.00000196      -0.00000258 
H       2.19732238      12.53551455      11.27974701       0.00000254      -0.00000095       0.00000107 
O       0.40173234       8.58133244      13.57422416       0.00000046       0.00000025      -0.00000027 
H       0.11744960       8.09245404      14.37611674       0.00000162       0.00000199      -0.00000208 
H       1.38122718       8.58324250      13.54409453      -0.00000274      -0.00000106       0.00000146 
O       6.75534065      15.13227616      11.30987904      -0.00000053      -0.00000002      -0.00000054 
H       7.03962302      15.62115507      12.11177118      -0.00000154      -0.00000173      -0.00000242 
H       5.77584570      15.13036767      11.27974649       0.00000266       0.00000126       0.00000144 
O       3.97290853      15.16192861      11.33270618       0.00000052       0.00000001       0.00000076 
H       3.69065962      15.60283264      10.49966537      -0.00000009      -0.00000180       0.00000322 
H       3.72223126      14.21246733      11.32910350       0.00000041       0.00000334      -0.00000140 
O       3.18416432       8.55168704       9.06837090      -0.00000108      -0.00000056       0.00000052 
H       3.46641806       8.11077981       8.23533355      -0.00000070       0.00000132       0.00000281 
H       3.43484556       9.50114758       9.06477162      -0.00000119      -0.00000389      -0.00000154 
O       0.39438480      12.50395371      11.33270637       0.00000076       0.00000029       0.00000053 
H       0.11213572      12.06304958      10.49966567       0.00000018       0.00000224       0.00000289 
H       0.14370725      13.45341491      11.32910367       0.00000076      -0.00000299      -0.00000147 
O       6.76268768      11.20965412       9.06837087      -0.00000071       0.00000003       0.00000084 
H       7.04494141      11.65056141       8.23533354      -0.00000037      -0.00000188       0.00000315 
H       7.01336883      10.26019357       9.06477156      -0.00000076       0.00000333      -0.00000133 
O       3.98025893      11.18000159      18.10290166      -0.00000001      -0.00000035      -0.00000081 
H       3.69597458      11.66889052      18.90478708       0.00000131      -0.00000225      -0.00000250 
H       4.95975397      11.17809237      18.07276828      -0.00000326       0.00000105       0.00000081 
O       3.17682029      12.53360539      15.83857020      -0.00000049      -0.00000007      -0.00000019 
H       3.46110397      12.04472201      16.64045943      -0.00000155       0.00000140      -0.00000216 
H       2.19732543      12.53551570      15.80843970       0.00000272      -0.00000128       0.00000170 
O       0.40173583       8.58133931      18.10290094      -0.00000002      -0.00000000      -0.00000019 
H       0.11745170       8.09245030      18.90478637       0.00000112       0.00000185      -0.00000194 
H       1.38123084       8.58324852      18.07276727      -0.00000325      -0.00000115       0.00000177 
O       6.75534316      15.13227700      15.83857005       0.00000011      -0.00000016      -0.00000053 
H       7.03962680      15.62116046      16.64045923      -0.00000103      -0.00000176      -0.00000241 
H       5.77584828      15.13036652      15.80843975       0.00000335       0.00000140       0.00000101 
O       3.97291196      15.16192438      15.86140200       0.00000066       0.00000062       0.00000012 
H       3.69066278      15.60282717      15.02836137      -0.00000003      -0.00000124       0.00000254 
H       3.72223431      14.21246288      15.85780102       0.00000062       0.00000399      -0.00000186 
O       3.18416728       8.55168358      13.59705687      -0.00000104      -0.00000086       0.00000022 
H       3.46641398       8.11078187      12.76401441      -0.00000046       0.00000117       0.00000248 
H       3.43484276       9.50114537      13.59345308      -0.00000104      -0.00000425      -0.00000155 
O       0.39438886      12.50395807      15.86140189       0.00000044      -0.00000016       0.00000050 
H       0.11213960      12.06305491      15.02836147       0.00000001       0.00000200       0.00000269 
H       0.14371067      13.45341942      15.85780079       0.00000069      -0.00000339      -0.00000142 
O       6.76269053      11.20965725      13.59705690      -0.00000038       0.00000055       0.00000018 
H       7.04493724      11.65055904      12.76401449       0.00000025      -0.00000145       0.00000248 
H       7.01336595      10.26019545      13.59345310      -0.00000065       0.00000381      -0.00000161 
O       3.98026146      11.18000133      22.63153845      -0.00000035      -0.00000050      -0.00000061 
H       3.69597865      11.66888592      23.43342680       0.00000074      -0.00000249      -0.00000229 
H       4.95975656      11.17809378      22.60140269      -0.00000361       0.00000052       0.00000125 
O       3.17681492      12.53361320      20.36721956      -0.00000043      -0.00000084       0.00000019 
H       3.46109857      12.04472421      21.16910495      -0.00000144       0.00000062      -0.00000179 
H       2.19731980      12.53552162      20.33708341       0.00000281      -0.00000226       0.00000217 
O       0.40173887       8.58134014      22.63153762      -0.00000066      -0.00000033       0.00000022 
H       0.11745617       8.09245567      23.43342605       0.00000048       0.00000141      -0.00000153 
H       1.38123397       8.58324776      22.60140168      -0.00000393      -0.00000109       0.00000225 
O       6.75533794      15.13227038      20.36721989       0.00000005      -0.00000054      -0.00000081 
H       7.03962176      15.62115943      21.16910518      -0.00000110      -0.00000199      -0.00000279 
H       5.77584281      15.13036197      20.33708405       0.00000331       0.00000112       0.00000066 
O       3.97291484      15.16192191      20.39004397       0.00000041       0.00000018      -0.00000035 
H       3.69065900      15.60283012      19.55700826      -0.00000027      -0.00000188       0.00000193 
H       3.72223152      14.21246164      20.38644697       0.00000088       0.00000343      -0.00000212 
O       3.18416161       8.55168996      18.12572885      -0.00000119      -0.00000011       0.00000076 
H       3.46641520       8.11078377      17.29269157      -0.00000058       0.00000197       0.00000308 
H       3.43484320       9.50115066      18.12213099      -0.00000091      -0.00000352      -0.00000106 
O       0.39439197      12.50396160      20.39004364      -0.00000035      -0.00000100       0.00000016 
H       0.11213643      12.06305327      19.55700790      -0.00000070       0.00000112       0.00000229 
H       0.14370859      13.45342183      20.38644660       0.00000003      -0.00000420      -0.00000164 
O       6.76268453      11.20965078      18.12572929      -0.00000064       0.00000000      -0.00000038 
H       7.04493830      11.65055691      17.29269206       0.00000006      -0.00000195       0.00000195 
H       7.01336623      10.26019010      18.12213168      -0.00000075       0.00000331      -0.00000220 
O       3.98025644      11.18000874      27.16021443      -0.00000084      -0.00000027      -0.00000034 
H       3.69597391      11.66888708      27.96210710       0.00000008      -0.00000216      -0.00000210 
H       4.95975130      11.17809891      27.13008453      -0.00000412       0.00000048       0.00000178 
O       3.17681750      12.53360734      24.89586974      -0.00000117      -0.00000105      -0.00000046 
H       3.46109995      12.04472869      25.69776203      -0.00000209       0.00000063      -0.00000240 
H       2.19732253      12.53551598      24.86573734       0.00000200      -0.00000255       0.00000168 
O       0.40173348       8.58133274      27.16021400      -0.00000072      -0.00000037       0.00000027 
H       0.11745080       8.09245466      27.96210675       0.00000043       0.00000112      -0.00000160 
H       1.38122833       8.58324273      27.13008424      -0.00000398      -0.00000117       0.00000214 
O       6.75534055      15.13227688      24.89587012      -0.00000026      -0.00000062      -0.00000079 
H       7.03962310      15.62115578      25.69776223      -0.00000143      -0.00000227      -0.00000268 
H       5.77584555      15.13036838      24.86573769       0.00000300       0.00000074       0.00000098 
O       3.97290925      15.16192919      24.91869703      -0.00000027      -0.00000081      -0.00000040 
H       3.69065993      15.60283356      24.08565654      -0.00000072      -0.00000300       0.00000176 
H       3.72223140      14.21246806      24.91509443       0.00000047       0.00000230      -0.00000227 
O       3.18416530       8.55168666      22.65436106      -0.00000106       0.00000035       0.00000150 
H       3.46641874       8.11077923      21.82132369      -0.00000043       0.00000243       0.00000390 
H       3.43484622       9.50114724      22.65076145      -0.00000069      -0.00000302      -0.00000050 