3
Lattice="15.465374572161913 1.597987883168e-311 0.0 1.503751874795e-311 14.523252771947675 0.0 0.0 0.0 17.918181238680887" Properties=species:S:1:pos:R:3:forces:R:3 energy=5.24235795221 pbc="T T T" free_energy=5.24235795221
O       2.54471194       0.82153200       1.14781287      -0.79018264       0.42468418       1.28848579 
H       2.05395017       1.09079074       1.94771524       0.78941961      -0.42795313      -1.28707412 
H       2.56227401       7.10725321       1.12599209       0.00076818       0.00326238      -0.00140427 
