3
Lattice="15.465374572161913 1.597987883168e-311 0.0 1.503751874795e-311 14.523252771947675 0.0 0.0 0.0 17.918181238680887" Properties=species:S:1:pos:R:3:forces:R:3 energy=45179.6620297 pbc="T T T" free_energy=45179.6620297
O       2.54471194       0.82153200       1.14781287  -21228.80091194   25356.79298538  -39557.32931177 
H       2.05395017       1.09079074       1.94771524   -7245.27756380   11951.26896083   20144.69790584 
H       2.56227401       7.10725321       1.12599209    -715.99256336  -14588.55203423    2476.20132496 
