4806
Lattice="32.126399168316865 7.6785234778848e-310 0.0 7.724608209845e-310 31.908115768491204 0.0 0.0 0.0 32.069098987757556" Properties=species:S:1:pos:R:3:forces:R:3 energy=-695.518893495 stress="-0.021223375548573686 -4.9638756e-316 -0.0 -4.9638756e-316 -0.020853378831343545 -0.0 -0.0 -0.0 -0.02102208527303864" pbc="T T T"
O       8.55627228       2.63277509       0.17549118       0.00000515      -0.00020414      -0.00014095 
H       9.50702670       2.93165477       0.15155814      -0.00001188      -0.00013887      -0.00005067 
H       8.40665733       2.16093713      -0.67543879       0.00011146      -0.00023775      -0.00013845 
O       2.12959659      -0.21784556       2.41180139      -0.00018393       0.00024009      -0.00032419 
H       1.50058023       0.47273593       2.68488696      -0.00031983       0.00027819      -0.00070369 
H       1.71930221      -1.06926562       2.62647690      -0.00021529       0.00025961      -0.00030749 
O      -0.44436739       3.37332704       6.90264227      -0.00001112      -0.00001774       0.00010670 
H       0.49304167       3.45601668       6.62818981      -0.00002385       0.00001682       0.00007518 
H      -0.79092242       4.28498559       6.94812740      -0.00004670      -0.00002184       0.00004876 
O       6.82564634       2.98194939       7.72820546      -0.00005490       0.00002741       0.00004839 
H       7.12452631       3.18475853       6.80384950      -0.00003277      -0.00001773       0.00004577 
H       6.23509722       2.21631160       7.68918437      -0.00007159       0.00003462       0.00009044 
O       0.66779697       2.03234064       2.69027862      -0.00009357       0.00018770      -0.00024637 
H       1.31989379       2.61895432       3.12600008       0.00002051      -0.00010715      -0.00001885 
H      -0.22033080       2.18440789       3.05740466       0.00000014      -0.00014636       0.00011665 
O      -0.40911132       8.51958579       5.96685930       0.00011295       0.00029741       0.00060066 
H      -0.02523754       7.62329664       6.00593979      -0.00001478       0.00025815       0.00058463 
H      -1.36470112       8.45449392       6.16818154       0.00010133       0.00036216       0.00053085 
O       1.63044818       8.51005349       2.00985212      -0.00000955      -0.00002796       0.00003921 
H       0.85173438       8.82580925       2.52467412      -0.00008206      -0.00033755       0.00018343 
H       1.31175876       7.89562079       1.30015161       0.00004736       0.00000949       0.00000149 
O       5.13196459       8.44661992       4.46548846      -0.00004016       0.00013548       0.00028726 
H       5.01869424       9.28720713       3.96764685       0.00001151       0.00015615       0.00028908 
H       5.18985080       8.60674503       5.43889650      -0.00009003       0.00015836       0.00027966 
O       6.85584995       5.03971077       9.23665664      -0.00006630       0.00010275      -0.00005435 
H       6.75850743       4.16236652       8.81121894      -0.00003588       0.00009625      -0.00005143 
H       7.12638382       5.01416646      10.18621740      -0.00004486       0.00009775      -0.00005744 
O       8.89166943       2.72147124       9.23896937      -0.00005969       0.00002663       0.00009467 
H       8.17930043       2.93725970       8.59853985      -0.00006441       0.00002471       0.00010399 
H       9.16693842       3.48904966       9.77575476      -0.00003374       0.00003702       0.00007399 
O       2.74739264       3.27492360       3.55583089       0.00005444      -0.00019324       0.00002100 
H       3.41454102       2.56886074       3.38262202       0.00006406      -0.00017652       0.00001578 
H       3.17392889       4.11201688       3.26869022       0.00004401      -0.00016292       0.00007484 
O       1.92851054       3.85634440       5.96525020      -0.00008597       0.00006953      -0.00004660 
H       2.28130208       3.57577794       5.09308207      -0.00009530      -0.00000868      -0.00002357 
H       2.65987203       3.74058710       6.61358013      -0.00008966       0.00003593      -0.00004918 
O       2.81463140       7.42208797       4.01639111      -0.00000522       0.00002911       0.00005731 
H       2.40898673       7.86500781       3.23039726       0.00002479      -0.00001003       0.00000370 
H       3.65813150       7.88820378       4.24023850      -0.00005091       0.00006817       0.00011090 
O       3.93684316       3.38155275       7.54877494      -0.00009126      -0.00004238      -0.00006716 
H       4.55996931       3.10988129       6.85345654      -0.00010414      -0.00006488      -0.00007344 
H       4.22349766       4.20520435       8.01128286      -0.00005398      -0.00004382      -0.00009425 
O       7.47927778      -1.03528032       1.27221650      -0.00010809      -0.00000867      -0.00004622 
H       7.84270431      -0.21836982       1.68543968      -0.00014290      -0.00002488       0.00002286 
H       8.00414346      -1.83021983       1.55178507      -0.00012007      -0.00001090      -0.00003230 
O       4.72220544       1.64678721       3.22042896       0.00010709      -0.00015469      -0.00008299 
H       5.42446614       2.30867650       3.05300908       0.00005914      -0.00011101      -0.00009610 
H       4.76869181       0.93824505       2.54987252      -0.00002035      -0.00005440      -0.00019544 
O       9.00314463       8.58857416       2.22172794      -0.00007503       0.00000105      -0.00006234 
H       9.79401459       8.97272813       2.66668821      -0.00006410       0.00000538      -0.00008556 
H       8.37537984       9.30025835       1.97029364      -0.00006652       0.00002476      -0.00003843 
O       5.15997791       8.50470966       7.03772791      -0.00017193       0.00043058       0.00034722 
H       4.30862839       8.03512280       7.21146950      -0.00011393       0.00031756       0.00031092 
H       5.89718727       7.91316682       7.33275592      -0.00012937       0.00047629       0.00031344 
O       7.96507611       3.68469124       5.53442354       0.00000137       0.00001180       0.00005704 
H       7.44492290       3.51821685       4.71248713       0.00000972      -0.00001214       0.00005414 
H       8.09487199       4.66358886       5.59299293      -0.00005451       0.00001739       0.00006355 
O       3.69629768      -1.08346605       9.41643033       0.00012678      -0.00011009      -0.00012344 
H       2.88626108      -1.25048599       8.85608503       0.00011629      -0.00004653      -0.00012963 
H       3.45143805      -0.75341826      10.30662565       0.00014286      -0.00010795      -0.00012254 
O       5.17450753       1.82140601       5.86296534      -0.00002406      -0.00002096      -0.00002970 
H       4.71799089       1.13472951       6.36489523       0.00002440      -0.00004353      -0.00001712 
H       5.00975556       1.61605601       4.92562522       0.00002805      -0.00007450      -0.00002412 
O       2.97291658       7.33025111       7.71746946      -0.00011124       0.00008897       0.00013266 
H       2.43509991       7.76435136       8.42855157      -0.00006610       0.00017641       0.00007324 
H       2.34056355       6.97267662       7.04443138      -0.00010701       0.00011066       0.00009979 
O       9.59985881       6.99940808       0.22599201       0.00000501       0.00001433      -0.00006868 
H       9.05986029       6.17627867       0.21579120       0.00016099      -0.00008658       0.00004282 
H       9.33978110       7.52581509       1.01513212      -0.00003591       0.00000361      -0.00007177 
O       8.49736039       9.02445912       9.06722121       0.00005117       0.00013713       0.00003122 
H       8.89983242       8.52064503       9.80965890       0.00005935       0.00012730       0.00001872 
H       7.87436222       9.68950890       9.44238617      -0.00016365      -0.00005656      -0.00000596 
O      -1.19873867       1.88149697       4.89067089       0.00026116       0.00012324      -0.00007655 
H      -1.00805400       2.47056266       5.65025869       0.00017153       0.00002310       0.00001650 
H      -2.15599556       1.81205695       4.75689778       0.00026210       0.00017363      -0.00017023 
O       7.95482687       1.29154104       2.25731727      -0.00009785      -0.00000205      -0.00002967 
H       8.23272730       1.74643839       1.41324963      -0.00005630      -0.00007486      -0.00005115 
H       8.78136345       1.25016270       2.82064622      -0.00012553      -0.00001713       0.00000582 
O       8.46140759       6.18551316       5.72472147      -0.00008605       0.00005601       0.00005856 
H       7.98824208       6.63251798       4.97501316      -0.00005371       0.00005294       0.00003908 
H       8.04536979       6.53700466       6.54633271      -0.00010104       0.00010498       0.00002988 
O       7.81728570       5.10503593       0.07988438       0.00010967      -0.00013687       0.00024218 
H       8.01359566       4.13841049       0.07993542      -0.00003062      -0.00016135      -0.00000754 
H       7.32149544       5.28930509      -0.75109618       0.00009788       0.00022159       0.00034307 
O      -0.85682557       7.66024215       8.68884679      -0.00010473      -0.00013949       0.00029643 
H      -1.05313375       7.19237293       9.51544583       0.00000659      -0.00012731       0.00032669 
H      -0.80995930       6.98189711       8.00554137      -0.00023802      -0.00011489       0.00025225 
O       7.26002584       7.15310463       7.80648581      -0.00009982       0.00020473       0.00002812 
H       7.19897393       6.35697257       8.37961570      -0.00009995       0.00017464      -0.00001437 
H       7.74163721       7.85896748       8.30229910       0.00002968       0.00011737       0.00002094 
O       4.92984897      -0.49557500       1.67286055      -0.00016694      -0.00004391      -0.00029650 
H       4.30196557      -0.57762641       0.93669930      -0.00017154      -0.00017176      -0.00028464 
H       5.79770664      -0.84763282       1.41193697      -0.00016464      -0.00008848      -0.00020789 
O       0.87786766       0.67431391       7.04540016       0.00003969      -0.00001964      -0.00006584 
H       1.52639743       1.11040741       7.63356513      -0.00006304      -0.00004879       0.00006747 
H       1.21465815       0.77562917       6.14763855       0.00021257       0.00008087       0.00000530 
O       1.33040988       6.46891330       5.87753827      -0.00007223       0.00011563       0.00009810 
H       1.83227070       6.83821709       5.11262283      -0.00009553       0.00012307       0.00008296 
H       1.45919037       5.49877390       5.84646803      -0.00012375       0.00011695       0.00003914 
O       3.85873270       5.48582950       2.69659244      -0.00002946      -0.00007800       0.00020664 
H       3.53171564       6.24097883       3.24180954      -0.00003846      -0.00005443       0.00018394 
H       4.80842093       5.60652226       2.49794242      -0.00003795      -0.00006655       0.00020108 
O       4.30120012       5.48236801       8.98398769      -0.00004402      -0.00000947      -0.00007899 
H       3.86833621       6.23202738       8.51180460      -0.00005562       0.00002457      -0.00001490 
H       5.26783959       5.58711925       9.08662208      -0.00004456      -0.00000206      -0.00005958 
O       2.64711776       1.61433792       8.89362976      -0.00004972      -0.00002534       0.00004925 
H       3.27199613       2.23915779       8.44992133      -0.00007575      -0.00002300       0.00001789 
H       3.16500963       0.85530400       9.18957223      -0.00001168       0.00001844       0.00009559 
O      -0.30186010       9.31116509       3.50088067      -0.00030631      -0.00108435       0.00009383 
H      -0.34430519      10.30057101       3.54981233      -0.00023100      -0.00100075       0.00007957 
H      -0.26041123       8.99985643       4.43513245      -0.00024747      -0.00087975       0.00013387 
O       0.91863646       6.93737403       0.10903574       0.00010009      -0.00001405      -0.00011737 
H       1.48029292       6.13917120       0.25950539       0.00023781       0.00010415      -0.00009204 
H      -0.03199033       6.73298660       0.24614776       0.00013941      -0.00022749      -0.00013681 
O       0.96767668       3.19488370       0.40105314      -0.00063930       0.00090030       0.00007097 
H       0.82331858       2.70664777       1.25052647      -0.00046138       0.00095983       0.00014083 
H       1.21543889       2.52229154      -0.28761158      -0.00032917       0.00083148       0.00025529 
O       6.71021434       3.31068508       3.29524803      -0.00000210       0.00001462       0.00004688 
H       6.67807561       4.18012884       2.83274604      -0.00002420       0.00005364       0.00011667 
H       7.28659420       2.68062078       2.81012347      -0.00000666       0.00005883      -0.00001206 
O       7.36217515       7.38095650       3.76711411      -0.00007798       0.00012109       0.00007163 
H       8.01860699       7.93687856       3.28640280      -0.00010114       0.00010186       0.00002607 
H       6.56196699       7.91223769       3.99836076      -0.00005001       0.00012527       0.00016440 
O       6.40249448       5.61399763       2.15138861      -0.00004655       0.00004894       0.00011971 
H       6.90388314       5.48110451       1.30945852       0.00004706      -0.00004583       0.00019200 
H       6.84585872       6.31848612       2.67919278      -0.00007711       0.00007553       0.00011081 
O       1.52802553       8.30807192       9.62087841      -0.00006700       0.00052197       0.00009523 
H       1.71917221       9.25539393       9.76704356      -0.00077182       0.00073330      -0.00076805 
H       0.62395933       8.20411056       9.24939976      -0.00001982      -0.00006938       0.00012627 
O       5.46011671       0.51075276       8.32568931       0.00002082       0.00007835       0.00006172 
H       6.23282442       0.50803036       8.93971259       0.00000606       0.00004189       0.00008261 
H       4.82843849      -0.15078140       8.70334395       0.00002569       0.00002012      -0.00000861 
O       2.65358652       5.07690248       0.47343091       0.00022458       0.00007759       0.00003536 
H       3.12239261       5.24291473       1.32413581       0.00010885       0.00004463       0.00011025 
H       2.09586625       4.25803221       0.54590912      -0.00014103       0.00032103       0.00008099 
O       7.60375069       0.47439927       9.82617254       0.00002752      -0.00003468       0.00006094 
H       7.47288285       0.28644448      10.78467799       0.00004662      -0.00007826       0.00005635 
H       8.09424974       1.32115756       9.77311549       0.00001011      -0.00002215       0.00009591 
O      20.84209057       3.60610527      -0.43698943       0.00025016       0.00035281      -0.00020040 
H      19.94847235       4.00190049      -0.29640361       0.00024345       0.00031039      -0.00014667 
H      20.77561560       3.10230346      -1.27653268       0.00017701       0.00037021      -0.00020202 
O      13.53952280       0.60451360       1.54687970      -0.00003454       0.00002760       0.00011648 
H      13.14831630      -0.25884368       1.83515227      -0.00003889       0.00001161       0.00007140 
H      12.89959367       1.31106558       1.80697771      -0.00006183       0.00000818       0.00010162 
O      10.37478609       2.74024649       5.57797073       0.00003978       0.00007344       0.00002227 
H       9.46098310       3.12498161       5.54974705       0.00004057       0.00007641       0.00001962 
H      10.54950826       2.46371277       6.50888917       0.00001883       0.00008463       0.00003089 
O      17.55139685       3.30344096       7.36084751      -0.00012206       0.00004956      -0.00007024 
H      17.21627715       4.10672097       7.81583569      -0.00013798       0.00000883      -0.00001124 
H      18.25986877       3.58357689       6.73697692      -0.00014534       0.00008055      -0.00008541 
O      11.91405887       2.47726039       2.34649160      -0.00013053      -0.00001147       0.00007234 
H      11.25398730       1.97825968       2.87690137      -0.00014122      -0.00000183       0.00007139 
H      12.64986810       2.74268085       2.93560271      -0.00014786       0.00002188       0.00007740 
O      10.46311110       7.76299732       5.54720138      -0.00003695       0.00002551      -0.00003835 
H       9.70755190       7.12370615       5.63289446      -0.00003017       0.00002462       0.00000272 
H      10.36769561       8.43586412       6.25605488      -0.00006675       0.00008521      -0.00010154 
O      12.88428865       9.20069289       1.74797335       0.00005904       0.00004660       0.00002939 
H      13.60688939       9.79947930       1.43733881       0.00008399       0.00003386       0.00006402 
H      12.55431780       8.64833628       0.99762998       0.00004915       0.00008662       0.00000418 
O      15.89008587       8.49386726       3.88416100      -0.00017497       0.00007205      -0.00000259 
H      15.05811766       8.00959932       3.65950374      -0.00014887       0.00002713      -0.00001099 
H      16.62859361       7.83485606       3.78488246      -0.00014150       0.00011953      -0.00004847 
O      16.85746549       5.46815572       8.67718733      -0.00024647      -0.00008523       0.00012666 
H      15.88717050       5.51921283       8.81926544      -0.00023688      -0.00020024       0.00018279 
H      17.11345276       6.20984414       8.09005963      -0.00036065      -0.00005627       0.00011042 
O      18.58241817       1.65832051       9.06271410      -0.00001716       0.00002364      -0.00018122 
H      18.15265681       2.27171174       8.41817563      -0.00001981       0.00002207      -0.00018392 
H      19.32497585       1.22780387       8.57255348      -0.00002208      -0.00001516      -0.00015407 
O      14.12532752       3.07786724       3.62613002      -0.00006462       0.00000352      -0.00002100 
H      14.89696070       2.47677890       3.64052520      -0.00006719      -0.00000013      -0.00004522 
H      13.81603172       3.27769767       4.53091132       0.00001185       0.00006221      -0.00000824 
O      12.68506393       3.88387109       5.64217882       0.00003324       0.00009623       0.00005644 
H      12.99749255       3.62073088       6.53532761       0.00005244       0.00001023       0.00002392 
H      11.77510699       3.52872803       5.52623961       0.00003165       0.00009461       0.00004800 
O      13.77143777       7.24223945       3.10778681      -0.00010700      -0.00007077       0.00000218 
H      13.16742572       6.99348820       3.84570277      -0.00004347      -0.00000123       0.00008156 
H      13.41385823       7.98703444       2.56274493      -0.00008095      -0.00003823       0.00003213 
O      14.08286572       3.19919662       7.72518753       0.00004597      -0.00018807      -0.00000564 
H      13.74546333       2.71759779       8.51735366       0.00000551      -0.00019414      -0.00003230 
H      14.62646384       2.62179980       7.16141260      -0.00002972      -0.00019744      -0.00006748 
O      18.38165627       1.02148487       0.76527171      -0.00002497      -0.00003261      -0.00012582 
H      18.65201400       0.86672991      -0.16681647      -0.00005270      -0.00002537      -0.00013360 
H      19.11644830       1.50861464       1.19779414      -0.00005032       0.00004618      -0.00018149 
O      16.23973330       1.47655777       3.61926614      -0.00000004       0.00006695      -0.00015447 
H      17.09687791       1.96044045       3.54551242      -0.00002279       0.00010745      -0.00019185 
H      16.21371318       0.83530832       2.88954994       0.00001538       0.00003390      -0.00012422 
O      19.42329942       8.26442601       2.19785418       0.00012367       0.00003127       0.00004093 
H      19.74334600       7.71895683       1.44522435       0.00004954       0.00006824      -0.00001982 
H      18.93954041       9.04862269       1.84398147       0.00005271       0.00000809       0.00008210 
O      15.98117060       8.95959554       6.43426740      -0.00013152       0.00005991       0.00001040 
H      15.21864660       8.40334929       6.72873851      -0.00005581       0.00000202       0.00010581 
H      15.94768327       8.90369946       5.45621396      -0.00020050       0.00002279       0.00001284 
O      19.35228420       3.80544903       5.57988002      -0.00016247      -0.00003871      -0.00010845 
H      20.12497638       3.20437730       5.61529257      -0.00018117      -0.00005858      -0.00007058 
H      19.64881273       4.74605971       5.56378454      -0.00014581      -0.00004428      -0.00008466 
O      14.30445825       0.29386543      10.69699639      -0.00003133       0.00005892      -0.00004432 
H      15.21980049       0.32017415      10.37607106      -0.00005095       0.00012193      -0.00009827 
H      13.81876751       1.05193476      10.30190166      -0.00009339       0.00005968       0.00002737 
O      15.72880503       1.91374740       6.14741765      -0.00000949      -0.00002777      -0.00017517 
H      15.90348463       1.56032935       5.25487339       0.00005282      -0.00002072      -0.00016913 
H      16.48837774       2.47098150       6.42978763      -0.00005721       0.00001760      -0.00013641 
O      14.06732366       7.39807409       7.13402667       0.00012143      -0.00013154       0.00027711 
H      13.60713519       7.00904286       6.35427561       0.00013012      -0.00005784       0.00022894 
H      13.36452972       7.90564361       7.61311405       0.00010450      -0.00005965       0.00018270 
O      20.13376170       6.72718680       0.23506418      -0.00006359       0.00024694      -0.00021021 
H      19.98451849       7.33007583      -0.52921322       0.00003822       0.00023117      -0.00024164 
H      21.05166344       6.39692404       0.17714361      -0.00005800       0.00024446      -0.00013334 
O      19.68869167       8.30718100       8.75373519      -0.00026495      -0.00004706       0.00003697 
H      18.97165757       7.94917135       8.17838000      -0.00027790      -0.00007794       0.00007322 
H      20.54260885       8.18536156       8.29861174      -0.00026750      -0.00010080       0.00004326 
O      10.09042427       1.10948910       3.62004089      -0.00014991       0.00000932       0.00006779 
H      10.15424468       1.51082252       4.51479316      -0.00009042       0.00000793       0.00006362 
H      10.17631586       0.11819275       3.63310389      -0.00011015       0.00001333       0.00004999 
O      20.38226162       2.35726567       1.93033673      -0.00006487       0.00020499      -0.00024141 
H      20.62075476       2.87275121       1.14304728      -0.00003639       0.00025722      -0.00019407 
H      19.68872129       2.83076530       2.45071455      -0.00008027       0.00016732      -0.00022449 
O      19.55928411       6.37218896       5.42720437      -0.00023894      -0.00000723       0.00001291 
H      18.99895371       6.51565815       4.62916456      -0.00023495       0.00006968       0.00002072 
H      20.44240256       6.77082231       5.29132538      -0.00025887       0.00005695       0.00006387 
O      18.57717010       4.67265914       0.21768532       0.00010261       0.00008278      -0.00009245 
H      19.08095740       5.52469530       0.20888155      -0.00003264       0.00015910      -0.00018321 
H      18.00771250       4.67753247      -0.59234620       0.00002673      -0.00005873      -0.00004134 
O      10.36367975       9.58585379       7.38381074      -0.00004860       0.00015379      -0.00013688 
H      10.47560283      10.54699016       7.20956298      -0.00001446       0.00014890      -0.00012562 
H       9.61295108       9.49496238       8.01460189      -0.00001768       0.00017362      -0.00010687 
O      17.89349535       7.36580904       7.18801937      -0.00027868      -0.00008663       0.00006346 
H      17.24474568       8.01071401       6.82334848      -0.00020407      -0.00002337       0.00003126 
H      18.49498855       7.06079775       6.47357280      -0.00025210      -0.00009552       0.00008760 
O      16.03078301      -0.01081284       1.33671509      -0.00005051      -0.00001549      -0.00008324 
H      16.69671406       0.58172096       0.94270113      -0.00007099      -0.00001098      -0.00011912 
H      15.14053498       0.39272211       1.32387864      -0.00003849      -0.00000096      -0.00002082 
O      11.07141589       2.05300094       8.00020581      -0.00006632       0.00005797       0.00005458 
H      10.23350120       2.26503255       8.47545087      -0.00007867       0.00002839       0.00004899 
H      11.10052187       1.06522402       7.89182550      -0.00003555       0.00006204       0.00003511 
O      12.61677421       6.41902299       5.22320902       0.00007415       0.00012449       0.00019180 
H      12.60420333       5.44518578       5.38130201       0.00004670       0.00011622       0.00014814 
H      11.74541720       6.79985540       5.45943667       0.00004725       0.00011657       0.00012036 
O      14.44709987       5.04172945       1.97412600      -0.00000404      -0.00002471      -0.00004874 
H      14.18090325       5.90019853       2.38674670      -0.00003629      -0.00005033      -0.00001374 
H      14.31685869       4.33500427       2.64653494       0.00000346      -0.00004897      -0.00006902 
O      14.19969602       5.52529592       8.89909018      -0.00032669      -0.00022128       0.00019681 
H      14.18439410       4.65591675       8.43846122      -0.00021569      -0.00018932       0.00013921 
H      14.11525025       6.21464445       8.19068522      -0.00017656      -0.00018253       0.00021000 
O      12.88796534       2.26416045       9.80428486      -0.00007190       0.00006313       0.00005992 
H      12.07738497       2.17437485       9.23705412      -0.00008604       0.00010110       0.00007283 
H      12.75554535       2.95759911      10.49190877      -0.00001008       0.00009298       0.00004191 
O      11.06829897       9.32814419       3.61476245      -0.00006919       0.00004815      -0.00006338 
H      10.99560364       8.62465243       4.29548969      -0.00004740       0.00002110      -0.00008897 
H      11.86346973       9.27461411       3.04654119      -0.00004538       0.00008356      -0.00003162 
O      12.11010945       7.60412750      -0.10906442      -0.00000807       0.00009368       0.00000292 
H      11.17197334       7.33799150      -0.02277146      -0.00001607       0.00010634      -0.00000845 
H      12.57376449       6.73897262      -0.14565373      -0.00003845       0.00007695       0.00003006 
O      10.96437650       3.46539385       0.12474935      -0.00007340      -0.00002793       0.00005107 
H      11.38067810       2.89932785      -0.57295068      -0.00003875      -0.00001881       0.00006238 
H      11.30867210       3.14803271       0.98795525      -0.00009368      -0.00002149       0.00006496 
O      18.32804955       3.01411333       3.36097023      -0.00004447       0.00009679      -0.00019515 
H      18.67103221       3.36796906       4.21996835      -0.00006805       0.00002784      -0.00015315 
H      17.76456855       3.71521161       2.95651122      -0.00002337       0.00013814      -0.00015658 
O      17.83328322       6.87422366       3.60517197      -0.00010498       0.00015314      -0.00005749 
H      17.48890465       6.10524164       3.08949977      -0.00006461       0.00016195      -0.00009680 
H      18.40477451       7.39044553       2.98232591      -0.00000364       0.00011787       0.00000663 
O      17.00278977       4.88953541       2.19969900       0.00000669       0.00017224      -0.00013971 
H      17.50326993       4.83422029       1.34776902       0.00002648       0.00015138      -0.00012291 
H      16.03333126       4.97047808       2.01697465      -0.00000329       0.00008964      -0.00013635 
O      12.35597574       8.56816045       8.64669539      -0.00006080       0.00008800      -0.00007591 
H      11.62752714       9.08603583       8.22719648      -0.00003291       0.00007331      -0.00013699 
H      13.01713412       9.17245746       9.05096362      -0.00008992       0.00010965      -0.00006309 
O      15.26334529      -0.01505171       7.82280665      -0.00011554       0.00009694      -0.00009477 
H      15.91313535      -0.05226015       8.55248322      -0.00010896       0.00005882      -0.00009976 
H      15.51196588       0.74927571       7.26135407      -0.00001833       0.00002669      -0.00015080 
O      12.94209501       5.15277585      -0.09447260      -0.00016326       0.00004222       0.00007435 
H      12.12229510       4.60810198      -0.06697405      -0.00014860       0.00001556       0.00009168 
H      13.43875736       4.97415783       0.73704560      -0.00011027       0.00001839       0.00003957 
O      16.89532942      -0.05638223       9.93637212      -0.00007632       0.00004846      -0.00015149 
H      17.52054577       0.65106878       9.61494847      -0.00008350       0.00005636      -0.00013690 
H      17.37686359      -0.89946273       9.71943861      -0.00001904       0.00005965      -0.00008431 
O      30.63031522       2.81477894      -0.25938271      -0.00051788      -0.00067864       0.00017699 
H      31.55212937       3.12948475      -0.09081731      -0.00061181      -0.00032635       0.00010080 
H      30.02970457       3.59212283      -0.18779321      -0.00066268      -0.00075609       0.00004401 
O      24.58145187      -1.35099348       0.79750943      -0.00016575       0.00031644       0.00036593 
H      24.55688509      -1.26247653      -0.18388951      -0.00057844       0.00092264       0.00039429 
H      24.36848411      -0.44349178       1.11791486       0.00036369       0.00025072       0.00098194 