2944
Lattice="28.018013345517282 5.134140852649847e-309 0.0 5.130948763618096e-309 28.03334721481373 0.0 0.0 0.0 28.034094885400314" Properties=species:S:1:pos:R:3:forces:R:3 energy=-60424261.6455 stress="2572.9073517464726 -7.4109183e-316 -0.0 -7.4109183e-316 4621.517128067435 -0.0 -0.0 -0.0 483.3061402386658" pbc="T T T"
O      -0.11330999       5.38241654       3.39524762       0.47150006      -0.45565670      -0.02206668 
H      -0.84417921       6.01332467       3.46024173      -0.66859120       0.41371676       0.09913888 
H       0.66796750       5.94199712       3.23285282       0.19554354       0.00952109      -0.06679625 
O       3.59628104       1.74203594       0.15801670       0.17405612       0.02142075      -0.31135810 
H       3.63444928       1.09387596       0.88218279       0.28794357      -0.54970171       0.29353847 
H       2.83095155       2.30154069       0.38530632      -0.40693719       0.50276878      -0.05858516 
O       1.94105311       0.68738155       3.79332806       0.12830040       0.13640554      -0.73465504 
H       1.19560116       1.26626369       3.55643682      -0.45377827       0.21169739       0.42106043 
H       2.39437006       0.52787792       2.93696936       0.26856307      -0.28627716       0.37441739 
O       5.43058896       3.52407752       0.20218712       0.53450113       0.23430597      -0.37746093 
H       4.84624881       2.76529822       0.06084127      -0.76340740      -0.58398500       0.32767433 
H       5.98903966       3.54374439      -0.60646219       0.24451433       0.43957501       0.17793187 
O      -0.45514037       3.53565868       1.70108152      -0.09246116       0.57954494       0.26502867 
H      -0.99108925       3.66237722       0.90396280      -0.23697881      -0.49963127      -0.80514581 
H      -0.51722499       4.39501515       2.16521586       0.35742162      -0.09405545       0.50511608 
O       3.86283284       0.23801355       5.43236282       0.38245814      -0.20005221       0.01758425 
H       3.13136249       0.54716055       4.87487115      -0.37460880       0.26042422      -0.10540728 
H       4.45795291      -0.21913119       4.80860251       0.06383342      -0.05498683       0.12691187 
O       0.04331551       3.67971549       5.30378228       0.81410031      -0.10929155       0.39829171 
H       0.93359412       3.59360420       5.71781706      -0.37576648      -0.39645225       0.17506939 
H       0.14456532       4.42251930       4.68953156      -0.45035699       0.44213996      -0.54990120 
O       3.47647853      -0.15014412       1.88910909       0.19647956       0.33125617       0.34003568 
H       3.26056154      -0.89033301       1.30492792      -0.47014103      -0.50347379      -0.66489218 
H       4.25418870      -0.46541852       2.39269776       0.24181119       0.18033239       0.29874787 
O       3.53479538       5.25637945       0.31144262      -0.02449473       0.39159051       0.26279815 
H       4.34455972       4.72320273       0.28383646       0.30059626      -0.61238904      -0.25412010 
H       3.76721483       6.00503277       0.89514513      -0.29847162       0.22372869      -0.02500030 
O      -0.37659054       1.79918193       3.56338296      -0.00321451      -0.34428588      -0.11899886 
H      -0.50218435       2.38738392       2.79471638      -0.06450154       0.10444021      -0.11004414 
H      -0.29936633       2.41303012       4.31718028       0.03309469       0.19214165       0.23487090 
O       5.41792232      -0.69289288       3.50471378      -0.17850461      -1.05884140      -0.18029266 
H       5.90860434       0.13193516       3.58770104       0.42818739       0.66107014       0.08684308 
H       6.11657266      -1.37060686       3.37021376      -0.33744287       0.39634023       0.05932925 
O       1.77850307       3.45716237       0.44954164       0.11052513       0.22289069       0.09590571 
H       2.33000096       4.23631292       0.65260438       0.55112536       0.08708845      -0.24865091 
H       1.01473648       3.55089057       1.04325678      -0.73277951      -0.39683933       0.16993085 
O       7.08622706       5.20047721       3.93516187      -0.07667670      -0.00366283       0.07836476 
H       7.83583341       5.81532758       3.89348540       0.33713905       0.66360137       0.42824677 
H       7.20937371       4.63022202       3.16051842      -0.37652943      -0.65529293      -0.41357960 
O      10.81199444       1.67725732      -0.01323666       0.06096613       0.73465929      -1.11733212 
H      10.90758922       1.21440569       0.81680168      -0.07683121      -0.81398363       1.08354442 
H      11.52650729       2.35266373       0.01018760      -0.06727307       0.11297096      -0.21044305 
O       9.03429345       0.23649438       4.13392809      -0.97418748       0.26315632      -3.44194850 
H       9.70036721       0.18600008       4.77874476       1.84853240       0.06770126       1.72683123 
H       9.55606781       0.41786912       3.26239254      -0.78726661      -0.35941641       1.71147934 
O      12.47211845       3.65637914       0.17996312       2.70017859      -1.17745545       1.94771539 
H      13.04605318       3.61471713       1.03865532      -1.17648749      -0.00675546      -1.83431221 
H      11.84517118       4.34546619       0.36830564      -1.17941125       1.18298322       0.25582072 
O       7.11343873       3.34530716       2.15710376       0.37860714      -0.17606189       0.30190695 
H       6.39884516       3.31677417       1.50610751      -0.49831256       0.28274023      -0.76651852 
H       6.92612374       2.58886041       2.74668218       0.23455222      -0.18628215       0.47083043 
O      11.23460714       0.10954185       5.68382912       1.84409795      -2.06508751      -0.42568321 
H      11.05790621      -0.74531229       6.16655512      -0.27443399       1.33967329      -0.47966507 
H      12.01975141      -0.15706091       5.04077121      -1.78660190       1.14481984       1.29926317 
O       5.91207011       3.39622620       5.47115327      -0.21626950       0.03520959       0.35466627 
H       6.15729752       4.20181873       5.00111275       0.26567291       0.08097149      -0.36121313 
H       5.71746085       3.70039284       6.37591965      -0.00265107      -0.22673670       0.17719284 
O      10.71664312       0.24131971       2.06120647       0.73476204       0.04076625       0.88698235 
H      10.57755946      -0.60141427       1.59043336      -0.24261225      -0.44569679      -0.33009753 
H      11.55734200       0.09219075       2.57053645      -0.58684556       0.33551990      -0.34800516 
O      10.53175798       5.29931847       0.43892576       0.12310047      -0.22057352      -0.21940346 
H       9.83268746       4.64727243       0.62602145      -0.25434081      -0.69092306      -0.29902771 
H      10.39542612       5.98129863       1.10811500       0.19073943       0.90725227       0.41437741 
O       6.75965702       1.48608232       3.94692234       0.31516891      -0.29509108       0.02051183 
H       6.42714646       2.01083814       4.68471323      -0.60788189       0.51762680       0.22084022 
H       7.62566709       1.16098871       4.26195995       0.30587271      -0.30039114      -0.33988909 
O      12.86966919      -0.00253472       3.58103328       0.30365945       1.18255472       0.22790119 
H      13.57114918      -0.66382748       3.55879492       0.24738919      -0.56511227      -0.04659844 
H      13.32907188       0.82990741       3.83334666      -0.48767206      -0.58566990      -0.35783187 
O       8.90511124       3.37805163       0.35429943      -0.02007602      -0.00969440       0.21405369 
H       8.33798023       3.17116378       1.12177671      -0.55124359       0.28413851       0.26013299 
H       9.51109777       2.61887434       0.30031540       0.59919054      -0.23725319      -0.42369323 
O      13.38944967       4.60583886       5.14156995     -21.65986074      33.33060279     -84.29465091 
H      13.68515641       4.49370720       6.10671056      27.16901462     -74.45513106      66.48061215 
H      13.85437888       5.30961098       4.93057898     -10.48582035      -4.26800180       2.01787574 
O      17.16829893       1.76662023       0.41232125       0.74698366      -1.01506331       0.13615712 
H      16.80750560       1.24109246       1.14835480       0.11399597      -0.35326660       0.21504544 
H      16.53542106       2.46893541       0.30098684      -0.80242213       1.30890893      -0.38181073 
O      15.64134006       0.83911612       4.89984347      13.37358474     -18.83686909      -3.54308391 
H      16.66356369       0.94615123       5.18141611      -3.66459019      -1.29766618      -1.80708532 
H      15.32369310       1.53274722       5.05589311      -7.59552994      18.70086376       4.28454330 
O      19.40999981       3.02576191       0.31246699      -0.41203326      -0.69034784       0.44297429 
H      20.02991574       3.11210271       1.05130584       0.83344075       0.50121327       0.02529156 
H      18.71514471       2.42713581       0.65633986      -0.42620134       0.08290510      -0.57446640 
O      14.11923943       3.48111129       2.80991046      -0.67642681      -1.52126711       0.91421170 
H      14.02175651       4.19009197       3.46465239      -0.43860631       1.54493896       1.50752382 
H      14.80640350       3.75562033       2.25299533       1.27783575       0.06346282      -1.92927742 
O      18.27849773       0.63066688       5.37149455       0.10981871       0.46433988      -0.06868722 
H      18.71295712       0.52767339       4.51209203       0.07217431       0.17640139      -0.42088841 
H      18.20554185      -0.26958885       5.70389851      -0.18269886      -0.68257256       0.35627022 
O      13.63213806       3.97120300       6.47698215  590439.53758353 10187441.32917670 -7206938.56597797 
H      14.36179279       3.40741692       6.86161230 32514534806.86663437 46886969628.02655029 17386337356.47544861 
H      12.92341732       3.50969596       6.84206170 10398515.92697094 -416967.26494618   11847.83736903 
O      16.66630998       0.08501858       2.30340112      -0.50883252      -0.06930721       0.71847367 
H      17.60579892       0.11034778       2.56186790       0.39877639      -0.03145905      -0.12399513 
H      16.18903809       0.32071569       3.11961976      -0.08922422       0.18825675      -0.36192217 
O      18.07396495       5.23589624       0.23926231      -0.24848069       0.61512746      -1.12035449 
H      17.90853334       5.48751106      -0.69882342      -0.27998546       0.19153022       0.60301874 
H      18.67479418       4.48793548       0.17522609       0.56391246      -0.78884132       0.46666575 
O      13.35126433       2.68394727       5.56182731      -9.28425969      25.01639274      63.66433259 
H      13.11046629       2.80652325       4.76169224      -2.94431817       1.26303200      -8.11755272 
H      13.28144470       3.57830179       5.98843693      69.74110782      44.62242826      22.71486148 
O      19.19039148       0.13657749       2.84973683      -0.39333090       0.26679877      -0.13362578 
H      19.82572981       0.87989985       2.89307505       0.11229338       0.15319166       0.02265293 
H      19.73271815      -0.64528408       3.04068988       0.24343042      -0.45862901       0.11134103 
O      15.75747782       3.91127240       0.32083914      -0.88945292       0.40865452      -0.79952406 
H      16.55236580       4.46976938       0.31695989       0.31422781       0.04518689       0.21768155 
H      15.29111444       4.16552788      -0.52253038       0.28628018      -0.34700863       0.81950414 
O      20.41271354       5.46724674       3.56306306       0.06221140      -0.05020579      -0.29268748 
H      19.74414124       6.10453275       3.26250146      -0.31916085       0.50390515       0.27359674 
H      20.59424663       4.93258054       2.77123920       0.36441637      -0.43501162       0.04223143 
O      24.61743492       1.89659376      -0.04379382       0.26568685      -0.26817380       0.08045996 
H      23.94049660       2.58562181      -0.14637167      -0.34138196       0.63247682       0.14935771 
H      24.46575308       1.30354233      -0.80286703       0.13715764      -0.38927263      -0.19745613 
O      22.68567809       0.02047620       3.80751412      -0.04384627       0.06751541       0.20111479 
H      23.20723614       0.04666879       2.98485540       0.00161018       0.04547888      -0.33608146 
H      23.35656529      -0.13826732       4.50522792       0.03387455      -0.06851070       0.23683319 
O      26.48316523       3.58212368      -0.61587363       0.68148797      -0.50685873      -0.76063637 
H      27.21591441       3.34083769      -1.22112839       0.14744506       0.64673944       0.24003572 
H      25.92820163       2.78800063      -0.59373222      -0.77816737      -0.14150650       0.47302905 
O      21.36822832       3.84762030       1.81262422       0.29374071      -0.36570555       0.19409962 
H      21.59665673       3.07821816       2.37018378      -0.38001706       0.05977481       0.39194236 
H      22.09517065       3.89374124       1.16964526       0.15133716       0.45933976      -0.58660680 
O      24.62954075      -0.41728367       5.48308034       0.15395180      -0.51763476      -0.53180249 
H      25.31527939      -0.44691518       4.77995503      -0.07555393      -0.26211763      -0.15082349 
H      24.76935911       0.44117019       5.90679647      -0.11067465       0.74015336       0.56281379 
O      20.07120689       3.57001860       5.31959156      -0.28008777      -0.12452644      -0.08958162 
H      20.06933786       4.36526081       4.75207471      -0.14605171       0.07124450      -0.14367815 
H      20.98446756       3.52631241       5.65308968       0.36029906      -0.08841630       0.34699714 
O      24.18984845       0.02345463       1.69799137      -0.01274722       0.14701071       0.25452558 
H      24.18160298      -0.71509058       1.06541420      -0.01960600      -0.35049580      -0.18277223 
H      24.29470227       0.81523977       1.13362594       0.03730240       0.22999202      -0.07066145 
O      24.79982706       5.52380559      -0.77159718       0.45589275      -0.15287448      -0.30511204 
H      24.93253832       6.28539919      -1.35502602      -0.30083052       0.47683572      -0.00119147 
H      25.54875924       4.93390492      -0.98099060      -0.17160791      -0.31897624       0.25442775 
O      20.98004365       1.92903363       3.44215829       0.41412881      -0.45422543      -0.04499734 
H      21.65732508       1.33574371       3.82774446       0.14418436      -0.19265904      -0.28771082 
H      20.64259798       2.42408967       4.20306842      -0.59447092       0.68480831       0.39502344 
O      26.15926572      -0.28099968       3.37641912       0.00374443      -0.21239686       0.06677747 
H      25.49965981      -0.17116725       2.66723782      -0.39331632      -0.20921651      -0.27541390 
H      26.57576099       0.59626338       3.44493307       0.32670722       0.33727424       0.24639404 
O      22.94992217       3.87153785      -0.23361236      -0.09975614      -0.00956339      -0.20813826 
H      23.48077093       4.59330609      -0.60808879       0.61473322       0.40937397       0.19712029 
H      22.28686670       3.68595723      -0.92328910      -0.48928950      -0.49796580       0.08394202 
O      -0.27253420      12.38624478       3.39441127      -0.35341364       0.41235126       0.15756114 
H      -0.38354488      11.77384276       2.65202907       0.36738687      -0.80414658      -0.51017500 
H      -1.08833665      12.92835630       3.37588772      -0.05601725       0.42452597       0.45618159 
O       3.56157297       8.68339054      -0.62092196       0.80955893      -0.08402470      -0.45855923 
H       4.33739956       9.16632226      -0.98245943      -0.28824892      -0.33952639       0.07668409 
H       2.97765977       9.38412160      -0.30770018      -0.49228718       0.39028254       0.32045507 
O       1.83734076       7.06491123       3.30668484       0.31858060      -0.00892598       0.23132099 
H       2.49677264       7.24789391       2.61388153      -0.09767684       0.13082183      -0.32498726 
H       2.37657850       6.90674644       4.10718232      -0.24223448      -0.07382047       0.13654122 
O       5.63044522      10.24454582      -0.92206660       0.56158319       0.28557494      -0.64047813 
H       5.98063745      10.20711801      -0.02225840      -0.12192841      -0.16761217       0.69344786 
H       6.38212482      10.58572208      -1.45448207      -0.37902546      -0.08032138      -0.18746450 
O       0.02415180      10.60277139       1.66980529      -0.01300566       0.05429868       0.00779145 
H      -0.63915174      10.38233415       0.98870604      -0.22359256       0.21702329      -0.57160692 
H       0.00454093       9.83409224       2.27136214       0.29387017      -0.21858725       0.56663815 
O       3.32360349       6.82014800       5.43795201      -0.13613278      -0.97718516       0.11243191 
H       3.41816396       7.69062807       5.84554387       0.08632600       0.90010696       0.18033154 
H       3.36635823       6.19715546       6.19814444       0.01197041       0.00121725      -0.26760738 
O       0.04301503      10.72003797       5.26182992       0.16721324       0.25297190       0.01731496 
H       0.02032557      11.49104455       4.66809253      -0.55346484       0.17385684      -0.68777145 
H       0.78116927      10.91215292       5.86662371       0.27019300      -0.45524804       0.68464434 
O       3.76518070       7.42480552       1.63177008       0.95377884       0.40675001       0.41954268 
H       4.53271188       7.48377560       2.23326258      -0.37911079      -0.52446708       0.34366394 
H       3.97117456       8.05455076       0.92567346      -0.51926738       0.14747967      -0.75461340 
O       3.99136238      12.17186413      -0.22332340       0.04553287      -0.28407714       0.44913402 
H       4.01309499      12.83760741      -0.92694911      -0.11482994       0.63775400      -0.43819046 
H       4.63851980      11.50141191      -0.51495025       0.12049731      -0.32093641       0.05407827 
O       0.01222896       8.85011570       3.55119929      -0.02656557      -0.04375062      -0.08281441 
H       0.15970467       9.44608589       4.30453234      -0.30814281       0.64301121       0.40464564 
H       0.79502791       8.27278564       3.55334714       0.29709606      -0.59564609      -0.40662058 
O       5.21897858       7.01121602       3.74083650       0.08122287       0.26248705      -0.23725412 
H       4.60326270       6.81353411       4.46090117      -0.65247101       0.08953540       0.47439442 
H       5.85438446       6.27890094       3.76785616       0.63925619      -0.37048825      -0.22767971 
O       1.99352263      10.60322085       0.04783429       0.28216992       0.66596258       0.24064631 
H       1.39765028      10.74523436       0.80304258      -0.66259293      -0.51389290       0.28757869 
H       2.57025708      11.39287635       0.05278378       0.37265030      -0.15662020      -0.55160672 
O       7.27370151      12.18411072       3.19582657       0.02636549      -0.19703229       0.19670390 
H       7.57897193      11.75301487       4.01441249      -0.19489764      -0.31839663       0.16500320 
H       7.94883147      12.85917252       3.02126794       0.12206278       0.49546359      -0.43573922 
O       9.76257878       8.84157213      -0.25010649      -0.34149619       0.49540875      -0.33372707 
H       9.91133077       8.42834688       0.61083563       0.24493840      -0.42943556       0.54945276 
H       9.16797635       9.59878356      -0.04767385       0.05659053       0.01396605      -0.23957110 
O       8.68236194       7.19550446       3.84640140       0.60827818       0.27300109       0.58640819 
H       8.05429825       7.93496264       3.84877507      -0.60152304       0.26077096      -0.28592738 
H       9.32818128       7.43182644       4.55619432       0.06446339      -0.51428101      -0.18018832 
O      12.09346252      10.07888991      -0.31330564      -0.08917805      -0.15359975      -0.50200135 
H      12.44118058      10.28152948      -1.19853365       0.34943643       0.29335298       0.10172194 
H      11.30618787       9.53328886      -0.48926997      -0.33554613      -0.19454991       0.41167238 
O       6.15295985      10.42592812       1.60371811      -0.22952002       0.32444398      -0.49037962 
H       6.33217947       9.74118052       2.27012432       0.15715704      -0.04757878       0.37662798 
H       6.28521430      11.26415743       2.08693420       0.01312850      -0.29383506       0.08877266 
O      10.71681113       7.32326633       5.43464858       0.84116066      -0.65281422      -3.04478971 
H      11.49132242       7.53169385       4.82289854      -1.22763805      -0.43891255       0.40618751 
H      10.91850909       7.78091484       6.21283935       0.11606367       1.20953320       2.49831110 
O       7.41246431      10.83033364       5.38625081       0.31353367      -0.01266878      -0.05945952 
H       6.64351330      11.04466916       5.94151965      -0.38337727       0.14087935       0.15338849 
H       8.07060313      10.47949467       6.01948703       0.12420467      -0.11700335       0.02033123 
O      10.26418830       7.39575619       1.85112084       2.57738499       0.35280929      -0.60120996 
H      11.13758026       7.44067185       2.36389222      -1.26336816      -0.18321837      -0.81112848 
H       9.60945327       7.36179755       2.53319306      -1.33442705      -0.07390656       1.29170729 
O      10.77268511      12.19696424       0.56025435      -0.14795464       0.01669137       0.10757973 
H      11.34237287      11.44035201       0.35065817       0.41388850      -0.18728440      -0.10506605 
H       9.88336603      11.80708877       0.63960692      -0.18805870       0.17889431       0.05669221 
O       6.80361503       8.98979269       3.66978703       0.12610618       0.19030405       0.15364648 
H       6.10854593       8.37130325       3.94085559      -0.40949302      -0.70625423      -0.23259723 
H       6.88943210       9.59328912       4.42722649       0.39686954       0.52480800       0.04590814 
O      12.29629992       7.26546075       3.49781746       2.83513646      -1.90428620       0.73070101 
H      13.12110546       7.85974619       3.45920112      -0.99169219      -0.48604769      -0.11917798 
H      12.69284933       6.35582554       3.80880038      -1.30503377       2.30161930      -0.89600168 
O       8.42885004      11.06070798       0.33158445      -0.64617880      -0.04217026      -0.05554711 
H       8.06958716      11.33221230      -0.53329410       0.36763612       0.08692523      -0.14809628 
H       7.63346143      10.85354226       0.86178508       0.23769987      -0.10824989       0.30610147 
O      13.69323949      12.15367802       3.27934393      -0.05529457      -0.05874984       0.16714477 
H      13.62138433      11.57507067       4.06612972      -0.05627735       0.12776534       0.23162277 
H      13.70584107      11.53023334       2.53240306       0.04416669      -0.05185432      -0.40480209 
O      16.47302038       8.40547335      -0.40224668      -0.77202860       0.30369804      -0.98076235 
H      16.34227302       7.76784411      -1.13291841       0.35812023      -0.28752422       0.48163847 
H      15.96169904       9.19097843      -0.68429201       0.39486776      -0.06689635       0.56906583 
O      15.50408776       6.27762545       4.04176974      -5.05239595      -3.54575204      -4.87393026 
H      16.17664845       6.50885629       4.55738500       4.69756131       1.79945190       3.28273165 
H      15.93721279       6.27081165       3.09476098      -1.14643082       0.12696308       2.60043037 
O      18.72904640       9.68700549       0.03113034       0.33251478      -0.07658835       0.14610958 
H      18.34074355      10.55409013      -0.16630604      -0.07848561       0.29122022      -0.09746503 
H      18.00519049       9.06280082      -0.12852036      -0.28176259      -0.32970540      -0.04076725 
O      14.04084349      10.32211223       1.44042813      -0.79204894      -0.50634439       0.33726621 
H      14.70963796      10.60331276       0.80786101       0.51203366       0.24180292      -0.41409929 
H      13.27074543      10.07856723       0.87762270       0.35331267       0.09826638       0.23524211 
O      17.59902309       6.98740562       5.42280481       1.02096574      -0.49954809      -1.12092421 
H      18.22104120       7.27979981       4.69056710      -0.64687488      -0.69740971       0.40738207 
H      17.50010263       7.77449094       5.95165446      -0.38321280       1.08751304       0.97610576 
O      13.79215095      10.55534067       5.30772889      -0.33888446      -0.68138218      -0.30640388 
H      13.11485138      10.28011518       5.95799426      -0.13375590       0.50360639       0.44144465 
H      13.95093935       9.74600432       4.78284361       0.43801789       0.33058414      -0.14389877 
O      16.88146048       6.94888111       1.73396204      -0.63411058       0.44568763      -0.00612042 
H      16.54347966       7.55182126       1.02930801       0.11008962      -0.28810436       0.30760320 
H      17.35633601       6.25896060       1.23917821       0.13869841      -0.05875471       0.01133218 
O      17.88723769      12.14151274      -0.17540390      -0.00978610      -0.34935370       0.04913008 
H      17.90252256      12.66177682       0.64505081      -0.01459443       0.09308363       0.32512376 
H      18.02343816      12.80082340      -0.87374186       0.11889255       0.21658910      -0.40531720 
O      14.41271236       8.77512979       3.54887410       0.91502029      -1.01311669      -0.77689141 
H      15.03673713       8.00797329       3.54954622      -0.42232133       0.23727133       0.60033117 
H      14.53383205       9.18100950       2.66501780      -0.38718570       0.47050805      -0.00151979 
O      18.90581262       7.50345254       3.21687868       0.68993346       0.54575956       0.18600567 
H      18.23915733       7.56688433       2.53388826      -1.08956852      -0.32563988      -0.48263344 
H      19.54984344       8.20085687       2.98759804       0.35437377      -0.08168293       0.37664831 
O      15.62686251      10.89777497      -0.50565451      -0.15738313       0.49079885      -0.55469185 
H      16.34026508      11.55428708      -0.50688186       0.58201039      -0.03486462       0.49341769 
H      15.04555982      11.18038414      -1.23402841      -0.45634380      -0.41408552       0.05708234 
O      20.31282238      12.49512336       3.59253591      -0.41454134       0.25393952       0.44080341 
H      19.76461932      13.20650709       3.97233649      -0.03323753       0.41463114      -0.41727844 
H      20.43627452      11.87473352       4.33170189       0.44694037      -0.73049071      -0.01009077 
O      24.27242375       9.09218699       0.36745091      -0.43960077       0.10526046       0.30081920 
H      23.49223877       9.64837122       0.50836204      -0.09618170       0.85425954      -0.43154818 
H      24.12094128       8.32408092       0.93252924       0.56946562      -0.96893887       0.15874909 
O      22.45143110       7.05330084       3.09019070       0.26656491      -0.01244411      -0.29783022 
H      21.75947778       6.38719794       3.21730330      -0.79287874      -0.19248033       0.50556712 
H      23.01816859       6.67364427       2.39381166       0.48781730       0.21486783      -0.17544344 
O      26.45122544      10.24862570      -0.30497263      -0.26811956      -0.75557447      -0.22538813 
H      25.74005127       9.62470380      -0.06559168      -0.25562731       0.42413979       0.47743680 
H      27.00081228       9.74590541      -0.93406845       0.53031706       0.34492049      -0.17622997 
O      20.51800476      11.13575779       1.44354503      -0.78074282      -0.17619817      -0.19216667 
H      20.19175064      11.70890255       2.15601412       0.24181994       0.24154659       0.30013426 
H      19.71224139      10.68908087       1.11491766       0.51439308      -0.07097882      -0.11455419 
O      24.17339308       6.98162874       4.98366181      -0.07831495       0.40291182       0.13433274 
H      24.19887403       7.79010605       5.53163320       0.50117660       0.03882053       0.49848552 
H      23.42623070       7.13368218       4.37771129      -0.36456046      -0.50391998      -0.65488790 
O      20.93044603      10.54353233       5.15794279      -0.31874114      -0.27295835       0.01481375 
H      20.92787277       9.85883132       4.46250513       0.49169892       0.00446715      -0.49271620 
H      20.13412128      10.34146676       5.68609740      -0.06709379       0.38597305       0.46107269 
O      24.38748991       6.72706782       1.45775751       0.08859437      -0.09846579       0.17472030 
H      24.70142685       6.17249395       0.72788987      -0.21903960      -0.29332414      -0.73186932 
H      25.16722946       6.82338691       2.03150095       0.03622304       0.33916797       0.56039210 
O      24.82564331      12.21023962      -0.82110639      -0.20762834       0.07883742      -0.11216462 
H      25.51287475      11.52900784      -0.75593331       0.57198512      -0.15126341       0.01898132 
H      23.99282708      11.70999176      -0.77590862      -0.38425338       0.09690465       0.03121757 
O      20.98077738       9.11141551       3.03154966       0.17771234      -0.03429538      -0.38967662 
H      21.68484550       8.47637183       2.81170821       0.07664993      -0.64602483       0.42535973 
H      21.04254400       9.78234856       2.33235114      -0.48432088       0.67936551      -0.05832685 