4224
Lattice="29.57808890339595 1.92212050727e-313 0.0 2.12404710365e-313 32.75319017937189 0.0 0.0 0.0 28.248441011018517" Properties=species:S:1:pos:R:3:forces:R:3 stress="-0.003943304662817085 -5.9628331e-316 -0.0 -5.9628331e-316 -0.004325264753668464 -0.0 -0.0 -0.0 -0.003965897380706943" cutoff=-1.0 energy=-502.200226848 nneightol=1.2 pbc="T T T"
O       4.10657305       3.39390643       4.69157750      -0.00000017      -0.00000003      -0.00000007 
H       3.83095547       3.87692086       5.49541264       0.00000043      -0.00000094      -0.00000114 
H       5.08327065       3.40254773       4.67835860      -0.00000150       0.00000029       0.00000059 
O       3.28795923       4.79439353       2.33754374       0.00000018       0.00000004      -0.00000007 
H       3.56357851       4.31138344       3.14138110      -0.00000043       0.00000094      -0.00000114 
H       2.31126132       4.78574910       2.32432811       0.00000150      -0.00000029       0.00000059 
O       0.40929475       0.70023814       4.69157655      -0.00000018       0.00000004      -0.00000007 
H       0.13368262       0.21722232       5.49541305       0.00000043       0.00000094      -0.00000114 
H       1.38599189       0.69159809       4.67835559      -0.00000150      -0.00000029       0.00000059 
O       6.98523857       7.48807254       2.33754589       0.00000017      -0.00000004      -0.00000007 
H       7.26085384       7.97108058       3.14138611      -0.00000043      -0.00000094      -0.00000114 
H       6.00854139       7.49671361       2.32432810       0.00000150       0.00000029       0.00000059 
O       4.10978283       7.52495779       2.37677803      -0.00000010       0.00000009       0.00000042 
H       3.81514462       7.95349578       1.54704502      -0.00000005      -0.00000103       0.00000160 
H       3.85443448       6.58136336       2.35292201       0.00000019       0.00000199      -0.00000034 
O       3.28475962       0.66334292       0.02271641       0.00000010      -0.00000009       0.00000042 
H       3.57939752       0.23480326      -0.80701544       0.00000005       0.00000103       0.00000160 
H       3.54010504       1.60693841      -0.00114478      -0.00000019      -0.00000199      -0.00000035 
O       0.41251701       4.75751248       2.37677908      -0.00000010      -0.00000009       0.00000042 
H       0.11787533       4.32897710       1.54704643      -0.00000005       0.00000103       0.00000160 
H       0.15717531       5.70110994       2.35292473       0.00000019      -0.00000199      -0.00000035 
O       6.98202529       3.43079875       0.02271597       0.00000010       0.00000009       0.00000042 
H       7.27666252       3.85933797      -0.80701672       0.00000005      -0.00000103       0.00000160 
H       7.23736670       2.48720253      -0.00114625      -0.00000019       0.00000199      -0.00000035 
O       4.10657469       3.39390758       9.39960989      -0.00000018      -0.00000003      -0.00000007 
H       3.83096242       3.87691121      10.20345344       0.00000043      -0.00000094      -0.00000114 
H       5.08327234       3.40254860       9.38638479      -0.00000150       0.00000029       0.00000059 
O       3.28795333       4.79440424       7.04559236       0.00000018       0.00000004      -0.00000007 
H       3.56357002       4.31138901       7.84942728      -0.00000043       0.00000094      -0.00000114 
H       2.31125517       4.78575922       7.03236893       0.00000150      -0.00000029       0.00000059 
O       0.40929638       0.70023698       9.39960893      -0.00000018       0.00000004      -0.00000007 
H       0.13368957       0.21723196      10.20345386       0.00000043       0.00000094      -0.00000115 
H       1.38599358       0.69159721       9.38638178      -0.00000150      -0.00000029       0.00000059 
O       6.98523267       7.48806182       7.04559450       0.00000018      -0.00000004      -0.00000007 
H       7.26084535       7.97107500       7.84943230      -0.00000043      -0.00000094      -0.00000114 
H       6.00853524       7.49670348       7.03236892       0.00000150       0.00000029       0.00000059 
O       4.10979007       7.52495153       7.08482605      -0.00000010       0.00000009       0.00000042 
H       3.81513951       7.95349996       6.25510302      -0.00000005      -0.00000103       0.00000160 
H       3.85443274       6.58135920       7.06097157       0.00000019       0.00000199      -0.00000035 
O       3.28474972       0.66335184       4.73081224       0.00000010      -0.00000009       0.00000042 
H       3.57939520       0.23480882       3.90108516       0.00000005       0.00000103       0.00000160 
H       3.54010369       1.60694574       4.70695885      -0.00000019      -0.00000199      -0.00000035 
O       0.41252425       4.75751873       7.08482710      -0.00000010      -0.00000009       0.00000042 
H       0.11787022       4.32897293       6.25510442      -0.00000005       0.00000103       0.00000160 
H       0.15717358       5.70111410       7.06097429       0.00000019      -0.00000199      -0.00000035 
O       6.98201539       3.43078983       4.73081181       0.00000010       0.00000009       0.00000042 
H       7.27666019       3.85933240       3.90108387       0.00000005      -0.00000103       0.00000160 
H       7.23736534       2.48719520       4.70695737      -0.00000019       0.00000199      -0.00000035 
O       4.10656886       3.39391907      14.10770619      -0.00000018      -0.00000003      -0.00000007 
H       3.83095411       3.87691663      14.91155277       0.00000043      -0.00000094      -0.00000114 
H       5.08326625       3.40255937      14.09448925      -0.00000150       0.00000029       0.00000059 
O       3.28795669       4.79439277      11.75364797       0.00000018       0.00000004      -0.00000007 
H       3.56357060       4.31139414      12.55749417      -0.00000043       0.00000094      -0.00000114 
H       2.31125870       4.78574835      11.74042596       0.00000150      -0.00000029       0.00000059 
O       0.40929055       0.70022549      14.10770524      -0.00000018       0.00000004      -0.00000007 
H       0.13368126       0.21722654      14.91155319       0.00000043       0.00000094      -0.00000114 
H       1.38598750       0.69158644      14.09448625      -0.00000150      -0.00000029       0.00000059 
O       6.98523603       7.48807330      11.75365011       0.00000018      -0.00000003      -0.00000007 
H       7.26084594       7.97106987      12.55749918      -0.00000043      -0.00000094      -0.00000114 
H       6.00853877       7.49671435      11.74042595       0.00000150       0.00000029       0.00000059 
O       4.10978076       7.52495990      11.79287528      -0.00000010       0.00000009       0.00000042 
H       3.81513705       7.95350572      10.96314814      -0.00000005      -0.00000103       0.00000160 
H       3.85443092       6.58136622      11.76901330       0.00000019       0.00000199      -0.00000035 
O       3.28475127       0.66335030       9.43883799       0.00000010      -0.00000009       0.00000042 
H       3.57940185       0.23480002       8.60911635       0.00000005       0.00000103       0.00000160 
H       3.54010642       1.60694356       9.41497894      -0.00000019      -0.00000199      -0.00000035 
O       0.41251494       4.75751037      11.79287633      -0.00000010      -0.00000009       0.00000042 
H       0.11786776       4.32896716      10.96314954      -0.00000005       0.00000103       0.00000160 
H       0.15717176       5.70110707      11.76901601       0.00000019      -0.00000199      -0.00000035 
O       6.98201695       3.43079137       9.43883756       0.00000010       0.00000009       0.00000042 
H       7.27666685       3.85934120       8.60911507       0.00000005      -0.00000103       0.00000160 
H       7.23736807       2.48719737       9.41497747      -0.00000019       0.00000199      -0.00000035 
O       4.10657305       3.39390642      18.81579801      -0.00000018      -0.00000003      -0.00000007 
H       3.83095547       3.87692086      19.61963315       0.00000043      -0.00000094      -0.00000114 
H       5.08327065       3.40254773      18.80257911      -0.00000150       0.00000029       0.00000059 
O       3.28795922       4.79439353      16.46176425       0.00000018       0.00000004      -0.00000007 
H       3.56357851       4.31138343      17.26560161      -0.00000043       0.00000094      -0.00000114 
H       2.31126131       4.78574910      16.44854862       0.00000150      -0.00000028       0.00000059 
O       0.40929474       0.70023814      18.81579706      -0.00000018       0.00000004      -0.00000007 
H       0.13368262       0.21722231      19.61963357       0.00000043       0.00000094      -0.00000114 
H       1.38599189       0.69159809      18.80257611      -0.00000150      -0.00000029       0.00000059 
O       6.98523856       7.48807254      16.46176639       0.00000018      -0.00000003      -0.00000007 
H       7.26085384       7.97108058      17.26560662      -0.00000043      -0.00000094      -0.00000114 
H       6.00854139       7.49671361      16.44854861       0.00000150       0.00000029       0.00000059 
O       4.10978282       7.52495779      16.50099854      -0.00000010       0.00000009       0.00000042 
H       3.81514462       7.95349578      15.67126553      -0.00000005      -0.00000103       0.00000160 
H       3.85443448       6.58136336      16.47714252       0.00000019       0.00000199      -0.00000035 
O       3.28475962       0.66334292      14.14693692       0.00000010      -0.00000009       0.00000042 
H       3.57939752       0.23480326      13.31720507       0.00000005       0.00000103       0.00000160 
H       3.54010504       1.60693841      14.12307573      -0.00000019      -0.00000199      -0.00000035 
O       0.41251700       4.75751248      16.50099959      -0.00000010      -0.00000009       0.00000042 
H       0.11787533       4.32897710      15.67126694      -0.00000005       0.00000103       0.00000160 
H       0.15717531       5.70110994      16.47714524       0.00000019      -0.00000199      -0.00000035 
O       6.98202529       3.43079875      14.14693648       0.00000010       0.00000009       0.00000042 
H       7.27666252       3.85933797      13.31720378       0.00000005      -0.00000103       0.00000160 
H       7.23736669       2.48720253      14.12307425      -0.00000019       0.00000199      -0.00000035 
O       4.10657469       3.39390758      23.52383040      -0.00000017      -0.00000003      -0.00000007 
H       3.83096243       3.87691121      24.32767395       0.00000043      -0.00000094      -0.00000114 
H       5.08327235       3.40254860      23.51060530      -0.00000150       0.00000029       0.00000059 
O       3.28795333       4.79440424      21.16981287       0.00000018       0.00000004      -0.00000007 
H       3.56357002       4.31138901      21.97364779      -0.00000043       0.00000094      -0.00000114 
H       2.31125517       4.78575922      21.15658944       0.00000150      -0.00000028       0.00000059 
O       0.40929638       0.70023698      23.52382945      -0.00000018       0.00000004      -0.00000007 
H       0.13368957       0.21723196      24.32767437       0.00000043       0.00000094      -0.00000114 
H       1.38599359       0.69159721      23.51060230      -0.00000150      -0.00000029       0.00000059 
O       6.98523267       7.48806182      21.16981501       0.00000018      -0.00000003      -0.00000007 
H       7.26084535       7.97107500      21.97365280      -0.00000043      -0.00000094      -0.00000114 
H       6.00853524       7.49670348      21.15658943       0.00000150       0.00000029       0.00000059 
O       4.10979007       7.52495153      21.20904656      -0.00000010       0.00000009       0.00000042 
H       3.81513951       7.95349996      20.37932353      -0.00000005      -0.00000103       0.00000160 
H       3.85443274       6.58135920      21.18519208       0.00000019       0.00000199      -0.00000035 
O       3.28474972       0.66335184      18.85503275       0.00000010      -0.00000009       0.00000042 
H       3.57939519       0.23480882      18.02530567       0.00000005       0.00000103       0.00000160 
H       3.54010368       1.60694573      18.83117936      -0.00000019      -0.00000199      -0.00000035 
O       0.41252425       4.75751873      21.20904762      -0.00000010      -0.00000009       0.00000042 
H       0.11787022       4.32897292      20.37932494      -0.00000005       0.00000103       0.00000160 
H       0.15717358       5.70111410      21.18519481       0.00000019      -0.00000199      -0.00000035 
O       6.98201539       3.43078983      18.85503231       0.00000010       0.00000009       0.00000042 
H       7.27666019       3.85933240      18.02530438       0.00000005      -0.00000103       0.00000160 
H       7.23736534       2.48719520      18.83117788      -0.00000019       0.00000199      -0.00000035 
O       4.10656886       3.39391907      28.23192670      -0.00000017      -0.00000003      -0.00000007 
H       3.83095412       3.87691663      29.03577327       0.00000043      -0.00000094      -0.00000114 
H       5.08326626       3.40255937      28.21870976      -0.00000150       0.00000029       0.00000059 
O       3.28795670       4.79439277      25.87786848       0.00000018       0.00000004      -0.00000007 
H       3.56357061       4.31139414      26.68171468      -0.00000043       0.00000094      -0.00000114 
H       2.31125870       4.78574835      25.86464647       0.00000150      -0.00000029       0.00000059 
O       0.40929056       0.70022549      28.23192574      -0.00000018       0.00000004      -0.00000007 
H       0.13368127       0.21722654      29.03577369       0.00000043       0.00000094      -0.00000114 
H       1.38598750       0.69158644      28.21870676      -0.00000150      -0.00000029       0.00000059 
O       6.98523604       7.48807330      25.87787062       0.00000018      -0.00000003      -0.00000007 
H       7.26084594       7.97106987      26.68171969      -0.00000043      -0.00000094      -0.00000114 
H       6.00853877       7.49671435      25.86464645       0.00000150       0.00000029       0.00000059 
O       4.10978077       7.52495990      25.91709579      -0.00000010       0.00000009       0.00000042 
H       3.81513706       7.95350572      25.08736865      -0.00000005      -0.00000103       0.00000160 
H       3.85443093       6.58136622      25.89323381       0.00000019       0.00000199      -0.00000035 
O       3.28475127       0.66335030      23.56305850       0.00000010      -0.00000009       0.00000042 
H       3.57940185       0.23480002      22.73333686       0.00000005       0.00000103       0.00000160 
H       3.54010642       1.60694356      23.53919946      -0.00000019      -0.00000199      -0.00000035 
O       0.41251495       4.75751037      25.91709684      -0.00000010      -0.00000009       0.00000042 
H       0.11786776       4.32896716      25.08737006      -0.00000005       0.00000103       0.00000160 
H       0.15717176       5.70110707      25.89323653       0.00000019      -0.00000199      -0.00000035 
O       6.98201695       3.43079137      23.56305807       0.00000010       0.00000009       0.00000042 
H       7.27666685       3.85934120      22.73333558       0.00000005      -0.00000103       0.00000160 
H       7.23736807       2.48719737      23.53919798      -0.00000019       0.00000199      -0.00000035 
O       4.10657348      11.58220948       4.69158250      -0.00000017      -0.00000003      -0.00000006 
H       3.83095480      12.06522589       5.49541635       0.00000043      -0.00000094      -0.00000114 
H       5.08327126      11.59085508       4.67836129      -0.00000150       0.00000029       0.00000059 
O       3.28795888      12.98268298       2.33754877       0.00000017       0.00000004      -0.00000006 
H       3.56357953      12.49967097       3.14138479      -0.00000043       0.00000094      -0.00000114 
H       2.31126085      12.97403324       2.32433066       0.00000150      -0.00000028       0.00000059 
O       0.40929536       8.88855837       4.69158091      -0.00000018       0.00000004      -0.00000006 
H       0.13368161       8.40553909       5.49541512       0.00000043       0.00000095      -0.00000114 
H       1.38599255       8.87991162       4.67835750      -0.00000150      -0.00000028       0.00000059 
O       6.98523816      15.67634794       2.33755030       0.00000018      -0.00000004      -0.00000006 
H       7.26085489      16.15935925       3.14138843      -0.00000043      -0.00000094      -0.00000114 
H       6.00854098      15.68499523       2.32433030       0.00000150       0.00000029       0.00000059 
O       4.10978355      15.71323848       2.37678224      -0.00000010       0.00000009       0.00000042 
H       3.81514391      16.14177412       1.54704851      -0.00000005      -0.00000103       0.00000161 
H       3.85443560      14.76964358       2.35292903       0.00000019       0.00000199      -0.00000034 
O       3.28475838       8.85165666       0.02272043       0.00000010      -0.00000009       0.00000042 
H       3.57939784       8.42311968      -0.80701227       0.00000005       0.00000103       0.00000161 
H       3.54010360       9.79525260      -0.00113747      -0.00000019      -0.00000199      -0.00000034 
O       0.41252101      12.94579309       2.37678262      -0.00000010      -0.00000009       0.00000042 
H       0.11787730      12.51725962       1.54704928      -0.00000005       0.00000103       0.00000161 
H       0.15717757      13.88938986       2.35293165       0.00000019      -0.00000199      -0.00000034 
O       6.98202038      11.61910921       0.02271969       0.00000010       0.00000009       0.00000042 
H       7.27665939      12.04764697      -0.80701352       0.00000005      -0.00000103       0.00000161 
H       7.23736444      10.67551383      -0.00113920      -0.00000019       0.00000199      -0.00000034 
O       4.10657512      11.58221063       9.39961488      -0.00000018      -0.00000003      -0.00000007 
H       3.83096175      12.06521624      10.20345715       0.00000043      -0.00000094      -0.00000114 
H       5.08327295      11.59085595       9.38638748      -0.00000150       0.00000029       0.00000059 
O       3.28795299      12.98269369       7.04559739       0.00000018       0.00000004      -0.00000006 
H       3.56357104      12.49967654       7.84943097      -0.00000043       0.00000094      -0.00000114 
H       2.31125471      12.97404336       7.03237148       0.00000150      -0.00000028       0.00000059 
O       0.40929700       8.88855721       9.39961330      -0.00000018       0.00000004      -0.00000007 
H       0.13368856       8.40554873      10.20345592       0.00000043       0.00000094      -0.00000114 
H       1.38599424       8.87991075       9.38638369      -0.00000150      -0.00000028       0.00000059 
O       6.98523226      15.67633722       7.04559892       0.00000017      -0.00000004      -0.00000006 
H       7.26084640      16.15935367       7.84943461      -0.00000043      -0.00000094      -0.00000114 
H       6.00853483      15.68498511       7.03237112       0.00000151       0.00000029       0.00000059 
O       4.10979079      15.71323222       7.08483026      -0.00000010       0.00000009       0.00000042 
H       3.81513880      16.14177829       6.25510651      -0.00000005      -0.00000103       0.00000161 
H       3.85443386      14.76963942       7.06097859       0.00000019       0.00000199      -0.00000034 
O       3.28474848       8.85166557       4.73081626       0.00000010      -0.00000009       0.00000042 
H       3.57939551       8.42312524       3.90108832       0.00000005       0.00000103       0.00000161 
H       3.54010224       9.79525992       4.70696616      -0.00000019      -0.00000199      -0.00000034 
O       0.41252825      12.94579935       7.08483064      -0.00000010      -0.00000009       0.00000042 
H       0.11787220      12.51725544       6.25510727      -0.00000005       0.00000103       0.00000161 
H       0.15717583      13.88939402       7.06098121       0.00000019      -0.00000199      -0.00000034 
O       6.98201048      11.61910030       4.73081552       0.00000010       0.00000009       0.00000042 
H       7.27665706      12.04764141       3.90108707       0.00000005      -0.00000103       0.00000161 
H       7.23736308      10.67550650       4.70696443      -0.00000019       0.00000199      -0.00000034 
O       4.10656929      11.58222212      14.10771118      -0.00000018      -0.00000003      -0.00000006 
H       3.83095345      12.06522166      14.91155648       0.00000043      -0.00000094      -0.00000114 
H       5.08326686      11.59086672      14.09449194      -0.00000150       0.00000029       0.00000059 
O       3.28795635      12.98268222      11.75365299       0.00000018       0.00000004      -0.00000006 
H       3.56357162      12.49968168      12.55749786      -0.00000043       0.00000094      -0.00000114 
H       2.31125823      12.97403249      11.74042851       0.00000150      -0.00000028       0.00000059 
O       0.40929117       8.88854572      14.10770960      -0.00000018       0.00000004      -0.00000007 
H       0.13368026       8.40554331      14.91155525       0.00000043       0.00000094      -0.00000114 
H       1.38598816       8.87989998      14.09448816      -0.00000150      -0.00000028       0.00000059 
O       6.98523563      15.67634869      11.75365453       0.00000018      -0.00000004      -0.00000006 
H       7.26084698      16.15934854      12.55750149      -0.00000043      -0.00000094      -0.00000114 
H       6.00853836      15.68499598      11.74042814       0.00000150       0.00000029       0.00000059 
O       4.10978149      15.71324058      11.79287948      -0.00000010       0.00000009       0.00000042 
H       3.81513634      16.14178406      10.96315163      -0.00000005      -0.00000103       0.00000161 
H       3.85443205      14.76964644      11.76902031       0.00000019       0.00000199      -0.00000034 
O       3.28475004       8.85166404       9.43884201       0.00000010      -0.00000009       0.00000042 
H       3.57940216       8.42311644       8.60911952       0.00000005       0.00000103       0.00000161 
H       3.54010497       9.79525775       9.41498625      -0.00000019      -0.00000199      -0.00000034 
O       0.41251895      12.94579099      11.79287987      -0.00000010      -0.00000009       0.00000042 
H       0.11786974      12.51724967      10.96315240      -0.00000005       0.00000103       0.00000161 
H       0.15717402      13.88938700      11.76902293       0.00000019      -0.00000199      -0.00000034 
O       6.98201204      11.61910183       9.43884127       0.00000010       0.00000009       0.00000042 
H       7.27666372      12.04765021       8.60911827       0.00000005      -0.00000103       0.00000161 
H       7.23736582      10.67550867       9.41498452      -0.00000019       0.00000199      -0.00000034 
O       4.10657348      11.58220947      18.81580301      -0.00000018      -0.00000003      -0.00000006 
H       3.83095480      12.06522589      19.61963686       0.00000043      -0.00000094      -0.00000114 
H       5.08327126      11.59085508      18.80258180      -0.00000150       0.00000029       0.00000059 
O       3.28795888      12.98268298      16.46176928       0.00000018       0.00000004      -0.00000006 
H       3.56357953      12.49967097      17.26560530      -0.00000043       0.00000094      -0.00000114 
H       2.31126085      12.97403323      16.44855117       0.00000150      -0.00000028       0.00000059 
O       0.40929536       8.88855837      18.81580143      -0.00000018       0.00000004      -0.00000007 
H       0.13368161       8.40553909      19.61963564       0.00000043       0.00000094      -0.00000114 
H       1.38599255       8.87991162      18.80257801      -0.00000150      -0.00000028       0.00000059 
O       6.98523816      15.67634794      16.46177081       0.00000018      -0.00000004      -0.00000006 
H       7.26085489      16.15935925      17.26560893      -0.00000043      -0.00000094      -0.00000114 
H       6.00854098      15.68499523      16.44855080       0.00000150       0.00000029       0.00000059 
O       4.10978355      15.71323848      16.50100275      -0.00000010       0.00000009       0.00000042 
H       3.81514391      16.14177412      15.67126902      -0.00000005      -0.00000103       0.00000161 
H       3.85443560      14.76964358      16.47714954       0.00000019       0.00000199      -0.00000034 
O       3.28475838       8.85165666      14.14694093       0.00000010      -0.00000009       0.00000042 
H       3.57939784       8.42311968      13.31720823       0.00000005       0.00000103       0.00000161 
H       3.54010359       9.79525260      14.12308303      -0.00000019      -0.00000199      -0.00000034 
O       0.41252101      12.94579309      16.50100313      -0.00000010      -0.00000009       0.00000042 
H       0.11787730      12.51725962      15.67126979      -0.00000005       0.00000103       0.00000161 
H       0.15717757      13.88938986      16.47715216       0.00000019      -0.00000199      -0.00000034 
O       6.98202038      11.61910921      14.14694019       0.00000010       0.00000009       0.00000042 
H       7.27665939      12.04764697      13.31720698       0.00000005      -0.00000103       0.00000161 
H       7.23736444      10.67551383      14.12308130      -0.00000019       0.00000199      -0.00000034 
O       4.10657512      11.58221063      23.52383539      -0.00000017      -0.00000003      -0.00000006 
H       3.83096176      12.06521624      24.32767766       0.00000043      -0.00000094      -0.00000114 
H       5.08327296      11.59085595      23.51060799      -0.00000150       0.00000029       0.00000059 
O       3.28795299      12.98269369      21.16981789       0.00000018       0.00000004      -0.00000006 
H       3.56357104      12.49967654      21.97365148      -0.00000043       0.00000094      -0.00000114 
H       2.31125471      12.97404336      21.15659199       0.00000150      -0.00000028       0.00000059 
O       0.40929700       8.88855721      23.52383381      -0.00000018       0.00000004      -0.00000007 
H       0.13368857       8.40554873      24.32767644       0.00000043       0.00000094      -0.00000114 
H       1.38599424       8.87991075      23.51060420      -0.00000150      -0.00000028       0.00000059 
O       6.98523227      15.67633722      21.16981942       0.00000018      -0.00000004      -0.00000006 
H       7.26084640      16.15935367      21.97365511      -0.00000043      -0.00000094      -0.00000114 
H       6.00853483      15.68498511      21.15659162       0.00000150       0.00000029       0.00000059 
O       4.10979079      15.71323222      21.20905077      -0.00000010       0.00000009       0.00000042 
H       3.81513881      16.14177829      20.37932702      -0.00000005      -0.00000103       0.00000161 
H       3.85443387      14.76963942      21.18519910       0.00000019       0.00000199      -0.00000034 
O       3.28474848       8.85166557      18.85503677       0.00000010      -0.00000009       0.00000042 
H       3.57939551       8.42312524      18.02530883       0.00000005       0.00000103       0.00000161 
H       3.54010224       9.79525992      18.83118667      -0.00000019      -0.00000199      -0.00000034 
O       0.41252826      12.94579935      21.20905116      -0.00000010      -0.00000009       0.00000042 
H       0.11787220      12.51725544      20.37932779      -0.00000005       0.00000103       0.00000161 
H       0.15717584      13.88939402      21.18520172       0.00000019      -0.00000199      -0.00000034 
O       6.98201048      11.61910030      18.85503603       0.00000010       0.00000009       0.00000042 
H       7.27665706      12.04764141      18.02530758       0.00000005      -0.00000103       0.00000161 
H       7.23736308      10.67550650      18.83118493      -0.00000019       0.00000199      -0.00000034 
O       4.10656930      11.58222212      28.23193169      -0.00000018      -0.00000003      -0.00000006 
H       3.83095345      12.06522166      29.03577698       0.00000043      -0.00000094      -0.00000114 
H       5.08326687      11.59086672      28.21871245      -0.00000150       0.00000029       0.00000059 
O       3.28795635      12.98268223      25.87787350       0.00000018       0.00000004      -0.00000006 
H       3.56357163      12.49968168      26.68171836      -0.00000043       0.00000094      -0.00000114 
H       2.31125824      12.97403249      25.86464902       0.00000150      -0.00000028       0.00000059 
O       0.40929118       8.88854572      28.23193010      -0.00000018       0.00000004      -0.00000007 
H       0.13368026       8.40554331      29.03577576       0.00000043       0.00000094      -0.00000114 
H       1.38598816       8.87989998      28.21870866      -0.00000150      -0.00000028       0.00000059 
O       6.98523563      15.67634869      25.87787503       0.00000018      -0.00000004      -0.00000006 
H       7.26084699      16.15934854      26.68172200      -0.00000043      -0.00000094      -0.00000114 
H       6.00853836      15.68499597      25.86464865       0.00000150       0.00000029       0.00000059 
O       4.10978149      15.71324058      25.91709999      -0.00000010       0.00000009       0.00000042 
H       3.81513635      16.14178406      25.08737214      -0.00000005      -0.00000103       0.00000161 
H       3.85443205      14.76964644      25.89324082       0.00000019       0.00000199      -0.00000034 
O       3.28475004       8.85166404      23.56306252       0.00000010      -0.00000009       0.00000042 
H       3.57940217       8.42311644      22.73334003       0.00000005       0.00000103       0.00000161 
H       3.54010497       9.79525775      23.53920677      -0.00000019      -0.00000199      -0.00000034 