4224
Lattice="28.529601413784693 1.53429554664e-313 0.0 1.69802103106e-313 31.514648313323093 0.0 0.0 0.0 27.10270574308301" Properties=species:S:1:pos:R:3:forces:R:3 stress="-0.019380718812364098 -6.6965334e-316 -0.0 -6.6965334e-316 -0.019219507608248105 -0.0 -0.0 -0.0 -0.018463231875354195" cutoff=-1.0 energy=-474.7137299 nneightol=1.2 pbc="T T T"
O       3.96662318       3.26505279       4.50605265       0.00000059      -0.00000035      -0.00000032 
H       3.68177457       3.75412217       5.30813751       0.00000040      -0.00000022      -0.00000028 
H       4.94644938       3.26206286       4.47408438      -0.00000085      -0.00000014       0.00000013 
O       3.16580657       4.61359242       2.24749301      -0.00000062       0.00000034      -0.00000032 
H       3.45065409       4.12453077       3.04958298      -0.00000044       0.00000022      -0.00000028 
H       2.18598056       4.61658531       2.21552831       0.00000081       0.00000014       0.00000013 
O       0.40042265       0.67426534       4.50605368       0.00000061       0.00000034      -0.00000032 
H       0.11557535       0.18520008       5.30814132       0.00000039       0.00000023      -0.00000027 
H       1.38024884       0.67726063       4.47408586      -0.00000087       0.00000015       0.00000014 
O       6.73200606       7.20438884       2.24749209      -0.00000061      -0.00000036      -0.00000032 
H       7.01685493       7.69345445       3.04957940      -0.00000043      -0.00000021      -0.00000028 
H       5.75218003       7.20140145       2.21552681       0.00000080      -0.00000014       0.00000013 
O       3.95808199       7.23310248       2.26856606       0.00000036      -0.00000019       0.00000035 
H       3.67761409       7.67497368       1.43486042       0.00000009      -0.00000022       0.00000021 
H       3.70834447       6.28286197       2.26685049       0.00000027       0.00000097       0.00000002 
O       3.17434924       0.64555261       0.00999857      -0.00000038       0.00000019       0.00000033 
H       3.45481329       0.20367819      -0.82370680      -0.00000011       0.00000022       0.00000022 
H       3.42408612       1.59579380       0.00827728      -0.00000030      -0.00000097       0.00000003 
O       0.39188005       4.58487987       2.26856739       0.00000036       0.00000020       0.00000035 
H       0.11141305       4.14300519       1.43486324       0.00000009       0.00000021       0.00000020 
H       0.14213928       5.53511937       2.26685033       0.00000028      -0.00000096       0.00000002 
O       6.74054798       3.29376690       0.00999730      -0.00000039      -0.00000020       0.00000035 
H       7.02101278       3.73563809      -0.82370944      -0.00000012      -0.00000021       0.00000022 
H       6.99028199       2.34352482       0.00827747      -0.00000031       0.00000097       0.00000003 
O       3.96662549       3.26505203       9.02314498       0.00000060      -0.00000034      -0.00000031 
H       3.68177792       3.75411749       9.82523232       0.00000042      -0.00000023      -0.00000030 
H       4.94645178       3.26206375       8.99117489      -0.00000083      -0.00000014       0.00000012 
O       3.16580137       4.61359933       6.76459750      -0.00000063       0.00000035      -0.00000033 
H       3.45064907       4.12453201       7.56668351      -0.00000043       0.00000022      -0.00000028 
H       2.18597513       4.61658995       6.73262719       0.00000081       0.00000014       0.00000013 
O       0.40042510       0.67426613       9.02314588       0.00000060       0.00000032      -0.00000029 
H       0.11557883       0.18520480       9.82523601       0.00000041       0.00000024      -0.00000030 
H       1.38025138       0.67725977       8.99117625      -0.00000086       0.00000015       0.00000013 
O       6.73200069       7.20438196       6.76459671      -0.00000063      -0.00000035      -0.00000033 
H       7.01684979       7.69345327       7.56668003      -0.00000042      -0.00000022      -0.00000029 
H       5.75217443       7.20139686       6.73262584       0.00000084      -0.00000014       0.00000012 
O       3.95808412       7.23309999       6.78566230       0.00000037      -0.00000019       0.00000033 
H       3.67761019       7.67497596       5.95196095       0.00000009      -0.00000022       0.00000021 
H       3.70834161       6.28286056       6.78395095       0.00000028       0.00000096       0.00000002 
O       3.17434332       0.64555913       4.52712383      -0.00000040       0.00000021       0.00000034 
H       3.45481432       0.20368040       3.69342357      -0.00000013       0.00000022       0.00000023 
H       3.42408619       1.59579929       4.52540863      -0.00000032      -0.00000098       0.00000003 
O       0.39188236       4.58488240       6.78566349       0.00000035       0.00000019       0.00000033 
H       0.11140932       4.14300294       5.95196364       0.00000009       0.00000022       0.00000022 
H       0.14213659       5.53512081       6.78395064       0.00000027      -0.00000096       0.00000002 
O       6.74054189       3.29376039       4.52712269      -0.00000039      -0.00000021       0.00000034 
H       7.02101362       3.73563588       3.69342104      -0.00000013      -0.00000020       0.00000021 
H       6.99028186       2.34351934       4.52540896      -0.00000032       0.00000099       0.00000003 
O       3.96662011       3.26505919      13.54027475       0.00000061      -0.00000033      -0.00000031 
H       3.68177282       3.75411846      14.34236639       0.00000044      -0.00000023      -0.00000032 
H       4.94644616       3.26206854      13.50831067      -0.00000082      -0.00000014       0.00000011 
O       3.16580327       4.61359356      11.28170221      -0.00000060       0.00000033      -0.00000031 
H       3.45064984       4.12453602      12.08379472      -0.00000042       0.00000023      -0.00000031 
H       2.18597716       4.61658449      11.24973570       0.00000082       0.00000014       0.00000012 
O       0.40041968       0.67425899      13.54027564       0.00000062       0.00000032      -0.00000031 
H       0.11557368       0.18520386      14.34237007       0.00000042       0.00000023      -0.00000030 
H       1.38024572       0.67725500      13.50831204      -0.00000084       0.00000015       0.00000012 
O       6.73200261       7.20438777      11.28170142      -0.00000062      -0.00000037      -0.00000036 
H       7.01685061       7.69344930      12.08379123      -0.00000041      -0.00000021      -0.00000028 
H       5.75217647       7.20140236      11.24973440       0.00000086      -0.00000014       0.00000011 
O       3.95807784       7.23310651      11.30277093       0.00000040      -0.00000021       0.00000039 
H       3.67761054       7.67497842      10.46906469       0.00000009      -0.00000019       0.00000015 
H       3.70834089       6.28286616      11.30105395       0.00000030       0.00000096       0.00000001 
O       3.17434644       0.64555577       9.04421180      -0.00000039       0.00000021       0.00000034 
H       3.45481702       0.20367635       8.21051105      -0.00000012       0.00000021       0.00000021 
H       3.42408874       1.59579580       9.04249526      -0.00000031      -0.00000098       0.00000003 
O       0.39187612       4.58487591      11.30277202       0.00000037       0.00000019       0.00000032 
H       0.11140973       4.14300052      10.46906727       0.00000010       0.00000022       0.00000022 
H       0.14213591       5.53511525      11.30105353       0.00000029      -0.00000097       0.00000002 
O       6.74054491       3.29376379       9.04421073      -0.00000038      -0.00000022       0.00000035 
H       7.02101619       3.73563998       8.21050859      -0.00000010      -0.00000020       0.00000020 
H       6.99028433       2.34352288       9.04249566      -0.00000030       0.00000099       0.00000002 
O       3.96662280       3.26505280      18.05740586       0.00000060      -0.00000034      -0.00000033 
H       3.68177417       3.75412221      18.85949069       0.00000043      -0.00000023      -0.00000031 
H       4.94644900       3.26206288      18.02543759      -0.00000082      -0.00000014       0.00000012 
O       3.16580620       4.61359245      15.79884623      -0.00000059       0.00000033      -0.00000033 
H       3.45065370       4.12453079      16.60093621      -0.00000042       0.00000023      -0.00000031 
H       2.18598019       4.61658535      15.76688152       0.00000084       0.00000014       0.00000012 
O       0.40042221       0.67426539      18.05740685       0.00000062       0.00000032      -0.00000032 
H       0.11557487       0.18520012      18.85949449       0.00000043       0.00000023      -0.00000031 
H       1.38024840       0.67726066      18.02543909      -0.00000083       0.00000014       0.00000012 
O       6.73200569       7.20438889      15.79884532      -0.00000062      -0.00000035      -0.00000033 
H       7.01685464       7.69345454      16.60093259      -0.00000042      -0.00000023      -0.00000031 
H       5.75217966       7.20140151      15.76688011       0.00000086      -0.00000014       0.00000011 
O       3.95808158       7.23310251      15.81991931       0.00000039      -0.00000017       0.00000032 
H       3.67761375       7.67497370      14.98621364       0.00000011      -0.00000022       0.00000020 
H       3.70834408       6.28286200      15.81820374       0.00000030       0.00000096      -0.00000000 
O       3.17434906       0.64555264      13.56135168      -0.00000036       0.00000019       0.00000031 
H       3.45481312       0.20367825      12.72764631      -0.00000010       0.00000022       0.00000022 
H       3.42408591       1.59579385      13.55963040      -0.00000029      -0.00000097       0.00000002 
O       0.39187975       4.58487994      15.81992044       0.00000038       0.00000020       0.00000032 
H       0.11141288       4.14300528      14.98621624       0.00000011       0.00000021       0.00000020 
H       0.14213901       5.53511944      15.81820335       0.00000030      -0.00000097       0.00000001 
O       6.74054761       3.29376695      13.56135057      -0.00000038      -0.00000020       0.00000036 
H       7.02101238       3.73563812      12.72764381      -0.00000008      -0.00000020       0.00000017 
H       6.99028160       2.34352487      13.55963075      -0.00000028       0.00000097       0.00000001 
O       3.96662543       3.26505200      22.57449786       0.00000063      -0.00000033      -0.00000032 
H       3.68177790       3.75411750      23.37658519       0.00000043      -0.00000023      -0.00000030 
H       4.94645172       3.26206371      22.54252770      -0.00000085      -0.00000014       0.00000013 
O       3.16580095       4.61359937      20.31595062      -0.00000058       0.00000033      -0.00000031 
H       3.45064875       4.12453199      21.11803657      -0.00000042       0.00000023      -0.00000031 
H       2.18597471       4.61658998      20.28398037       0.00000083       0.00000014       0.00000012 
O       0.40042472       0.67426617      22.57449900       0.00000062       0.00000033      -0.00000033 
H       0.11557847       0.18520480      23.37658911       0.00000043       0.00000023      -0.00000030 
H       1.38025100       0.67725980      22.54252934      -0.00000082       0.00000014       0.00000012 
O       6.73200060       7.20438195      20.31594960      -0.00000059      -0.00000034      -0.00000032 
H       7.01684980       7.69345330      21.11803287      -0.00000043      -0.00000023      -0.00000030 
H       5.75217433       7.20139685      20.28397883       0.00000082      -0.00000014       0.00000012 
O       3.95808389       7.23309999      20.33701540       0.00000038      -0.00000020       0.00000034 
H       3.67760988       7.67497598      19.50331408       0.00000011      -0.00000022       0.00000019 
H       3.70834133       6.28286058      20.33530407       0.00000030       0.00000097       0.00000000 
O       3.17434287       0.64555915      18.07847706      -0.00000036       0.00000021       0.00000032 
H       3.45481386       0.20368043      17.24477679      -0.00000009       0.00000022       0.00000021 
H       3.42408575       1.59579931      18.07676187      -0.00000029      -0.00000098       0.00000001 
O       0.39188189       4.58488244      20.33701668       0.00000039       0.00000019       0.00000032 
H       0.11140888       4.14300300      19.50331682       0.00000012       0.00000022       0.00000020 
H       0.14213611       5.53512085      20.33530384       0.00000031      -0.00000097       0.00000000 
O       6.74054160       3.29376044      18.07847582      -0.00000036      -0.00000020       0.00000031 
H       7.02101331       3.73563595      17.24477417      -0.00000011      -0.00000022       0.00000022 
H       6.99028163       2.34351941      18.07676208      -0.00000030       0.00000099       0.00000001 
O       3.96662044       3.26505914      27.09162729       0.00000061      -0.00000033      -0.00000029 
H       3.68177320       3.75411842      27.89371894       0.00000040      -0.00000023      -0.00000029 
H       4.94644648       3.26206848      27.05966314      -0.00000085      -0.00000014       0.00000013 
O       3.16580323       4.61359356      24.83305497      -0.00000060       0.00000034      -0.00000030 
H       3.45064989       4.12453598      25.63514742      -0.00000043       0.00000024      -0.00000030 
H       2.18597712       4.61658450      24.80108855       0.00000083       0.00000014       0.00000013 
O       0.40041975       0.67425899      27.09162845       0.00000060       0.00000033      -0.00000031 
H       0.11557380       0.18520382      27.89372288       0.00000042       0.00000024      -0.00000030 
H       1.38024579       0.67725500      27.05966477      -0.00000084       0.00000014       0.00000014 
O       6.73200288       7.20438771      24.83305395      -0.00000063      -0.00000034      -0.00000031 
H       7.01685092       7.69344924      25.63514375      -0.00000043      -0.00000023      -0.00000029 
H       5.75217675       7.20140229      24.80108697       0.00000084      -0.00000014       0.00000013 
O       3.95807802       7.23310648      24.85412365       0.00000037      -0.00000018       0.00000034 
H       3.67761057       7.67497843      24.02041747       0.00000011      -0.00000022       0.00000021 
H       3.70834100       6.28286616      24.85240670       0.00000029       0.00000096       0.00000001 
O       3.17434617       0.64555577      22.59556478      -0.00000037       0.00000019       0.00000033 
H       3.45481674       0.20367632      21.76186403      -0.00000010       0.00000022       0.00000021 
H       3.42408852       1.59579578      22.59384824      -0.00000029      -0.00000096       0.00000002 
O       0.39187596       4.58487590      24.85412503       0.00000039       0.00000018       0.00000033 
H       0.11140946       4.14300050      24.02042031       0.00000012       0.00000022       0.00000020 
H       0.14213571       5.53511522      24.85240657       0.00000030      -0.00000096       0.00000001 
O       6.74054499       3.29376379      22.59556346      -0.00000041      -0.00000023       0.00000042 
H       7.02101629       3.73564002      21.76186134      -0.00000009      -0.00000018       0.00000014 
H       6.99028448       2.34352290      22.59384838      -0.00000030       0.00000098       0.00000002 
O       3.96662301      11.14371439       4.50605204       0.00000062      -0.00000036      -0.00000033 
H       3.68177492      11.63278117       5.30813849       0.00000040      -0.00000022      -0.00000029 
H       4.94644916      11.14072260       4.47408417      -0.00000086      -0.00000014       0.00000012 
O       3.16580647      12.49225398       2.24749455      -0.00000062       0.00000036      -0.00000033 
H       3.45065448      12.00318979       3.04958298      -0.00000043       0.00000022      -0.00000029 
H       2.18598040      12.49524502       2.21552946       0.00000081       0.00000014       0.00000012 
O       0.40042340       8.55292702       4.50605080       0.00000060       0.00000034      -0.00000030 
H       0.11557392       8.06385617       5.30813451       0.00000041       0.00000024      -0.00000031 
H       1.38024956       8.55591332       4.47408234      -0.00000085       0.00000015       0.00000012 
O       6.73200715      15.08305061       2.24749569      -0.00000064      -0.00000034      -0.00000034 
H       7.01685389      15.57211065       3.04958691      -0.00000042      -0.00000022      -0.00000029 
H       5.75218109      15.08005423       2.21553109       0.00000084      -0.00000015       0.00000012 
O       3.95808111      15.11175499       2.26857048       0.00000037      -0.00000024       0.00000034 
H       3.67761441      15.55363070       1.43486711       0.00000009      -0.00000021       0.00000019 
H       3.70834189      14.16151412       2.26685187       0.00000029       0.00000100       0.00000001 
O       3.17434810       8.52420515       0.00999486      -0.00000038       0.00000023       0.00000033 
H       3.45481334       8.08233525      -0.82371279      -0.00000011       0.00000021       0.00000020 
H       3.42408334       9.47444597       0.00827666      -0.00000031      -0.00000099       0.00000001 
O       0.39188226      12.46354804       2.26856926       0.00000037       0.00000024       0.00000033 
H       0.11141475      12.02167558       1.43486453       0.00000010       0.00000021       0.00000019 
H       0.14214594      13.41378980       2.26685218       0.00000029      -0.00000099       0.00000001 
O       6.74055016      11.17243518       0.00999638      -0.00000040      -0.00000023       0.00000036 
H       7.02101447      11.61430862      -0.82370976      -0.00000011      -0.00000020       0.00000018 
H       6.99028853      10.22219534       0.00827650      -0.00000031       0.00000099       0.00000002 
O       3.96662535      11.14371366       9.02314438       0.00000060      -0.00000037      -0.00000036 
H       3.68177831      11.63277651       9.82523331       0.00000042      -0.00000021      -0.00000028 
H       4.94645158      11.14072351       8.99117467      -0.00000082      -0.00000014       0.00000011 
O       3.16580126      12.49226091       6.76459904      -0.00000061       0.00000036      -0.00000033 
H       3.45064947      12.00319103       7.56668350      -0.00000043       0.00000022      -0.00000030 
H       2.18597496      12.49524966       6.73262834       0.00000081       0.00000014       0.00000012 
O       0.40042585       8.55292781       9.02314301       0.00000060       0.00000033      -0.00000030 
H       0.11557741       8.06386090       9.82522921       0.00000041       0.00000023      -0.00000031 
H       1.38025210       8.55591246       8.99117273      -0.00000083       0.00000014       0.00000012 
O       6.73200179      15.08304374       6.76460030      -0.00000060      -0.00000034      -0.00000033 
H       7.01684877      15.57210947       7.56668754      -0.00000042      -0.00000023      -0.00000031 
H       5.75217550      15.08004965       6.73263012       0.00000082      -0.00000015       0.00000011 
O       3.95808325      15.11175251       6.78566671       0.00000037      -0.00000024       0.00000032 
H       3.67761052      15.55363298       5.95196764       0.00000010      -0.00000021       0.00000020 
H       3.70833904      14.16151272       6.78395233       0.00000029       0.00000100       0.00000001 
O       3.17434215       8.52421167       4.52712013      -0.00000040       0.00000022       0.00000035 
H       3.45481434       8.08233746       3.69341758      -0.00000012       0.00000021       0.00000020 
H       3.42408337       9.47445146       4.52540801      -0.00000032      -0.00000098       0.00000002 
O       0.39188456      12.46355057       6.78566536       0.00000038       0.00000023       0.00000037 
H       0.11141100      12.02167334       5.95196493       0.00000008       0.00000020       0.00000017 
H       0.14214324      13.41379124       6.78395249       0.00000028      -0.00000098       0.00000002 
O       6.74054402      11.17242868       4.52712177      -0.00000039      -0.00000024       0.00000036 
H       7.02101526      11.61430642       3.69342073      -0.00000011      -0.00000020       0.00000018 
H       6.99028837      10.22218987       4.52540798      -0.00000031       0.00000100       0.00000001 
O       3.96661999      11.14372082      13.54027415       0.00000062      -0.00000037      -0.00000038 
H       3.68177321      11.63277748      14.34236738       0.00000043      -0.00000021      -0.00000029 
H       4.94644598      11.14072830      13.50831046      -0.00000082      -0.00000014       0.00000010 
O       3.16580321      12.49225515      11.28170375      -0.00000062       0.00000036      -0.00000036 
H       3.45065028      12.00319506      12.08379472      -0.00000042       0.00000021      -0.00000029 
H       2.18597704      12.49524422      11.24973686       0.00000083       0.00000014       0.00000011 
O       0.40042046       8.55292068      13.54027275       0.00000062       0.00000034      -0.00000032 
H       0.11557228       8.06385997      14.34236326       0.00000043       0.00000023      -0.00000031 
H       1.38024646       8.55590770      13.50830851      -0.00000083       0.00000014       0.00000012 
O       6.73200374      15.08304954      11.28170502      -0.00000059      -0.00000033      -0.00000033 
H       7.01684962      15.57210550      12.08379873      -0.00000041      -0.00000024      -0.00000033 
H       5.75217757      15.08005514      11.24973867       0.00000085      -0.00000015       0.00000010 
O       3.95807701      15.11175904      11.30277534       0.00000039      -0.00000022       0.00000032 
H       3.67761091      15.55363545      10.46907138       0.00000010      -0.00000021       0.00000018 
H       3.70833835      14.16151833      11.30105532       0.00000030       0.00000098      -0.00000000 
O       3.17434529       8.52420833       9.04420809      -0.00000039       0.00000024       0.00000034 
H       3.45481704       8.08233342       8.21050505      -0.00000011       0.00000020       0.00000019 
H       3.42408593       9.47444799       9.04249463      -0.00000031      -0.00000099       0.00000002 
O       0.39187837      12.46354409      11.30277389       0.00000039       0.00000024       0.00000037 
H       0.11141146      12.02167093      10.46906856       0.00000008       0.00000019       0.00000016 
H       0.14214261      13.41378569      11.30105538       0.00000029      -0.00000099       0.00000001 
O       6.74054707      11.17243210       9.04420982      -0.00000038      -0.00000024       0.00000034 
H       7.02101786      11.61431053       8.21050828      -0.00000009      -0.00000021       0.00000018 
H       6.99029086      10.22219342       9.04249469      -0.00000029       0.00000099      -0.00000000 
O       3.96662263      11.14371441      18.05740526       0.00000060      -0.00000035      -0.00000034 
H       3.68177452      11.63278121      18.85949168       0.00000044      -0.00000023      -0.00000032 
H       4.94644878      11.14072262      18.02543738      -0.00000080      -0.00000014       0.00000010 
O       3.16580610      12.49225403      15.79884778      -0.00000058       0.00000032      -0.00000028 
H       3.45065410      12.00318982      16.60093621      -0.00000042       0.00000026      -0.00000037 
H       2.18598003      12.49524506      15.76688267       0.00000085       0.00000014       0.00000010 
O       0.40042295       8.55292707      18.05740398       0.00000062       0.00000034      -0.00000034 
H       0.11557343       8.06385622      18.85948768       0.00000044       0.00000023      -0.00000031 
H       1.38024911       8.55591336      18.02543557      -0.00000081       0.00000014       0.00000011 
O       6.73200678      15.08305066      15.79884893      -0.00000059      -0.00000031      -0.00000029 
H       7.01685359      15.57211074      16.60094011      -0.00000042      -0.00000026      -0.00000037 
H       5.75218072      15.08005429      15.76688438       0.00000087      -0.00000015       0.00000010 
O       3.95808070      15.11175503      15.81992373       0.00000040      -0.00000022       0.00000032 
H       3.67761408      15.55363072      14.98622033       0.00000011      -0.00000021       0.00000017 
H       3.70834150      14.16151416      15.81820512       0.00000031       0.00000098      -0.00000000 
O       3.17434793       8.52420521      13.56134797      -0.00000039       0.00000022       0.00000036 
H       3.45481317       8.08233533      12.72764032      -0.00000009       0.00000020       0.00000016 
H       3.42408312       9.47444604      13.55962978      -0.00000029      -0.00000098      -0.00000000 
O       0.39188195      12.46354811      15.81992232       0.00000038       0.00000023       0.00000031 
H       0.11141457      12.02167568      14.98621753       0.00000011       0.00000022       0.00000019 
H       0.14214567      13.41378988      15.81820521       0.00000031      -0.00000100      -0.00000000 
O       6.74054979      11.17243525      13.56134964      -0.00000036      -0.00000025       0.00000032 
H       7.02101408      11.61430868      12.72764349      -0.00000009      -0.00000022       0.00000018 
H       6.99028815      10.22219541      13.55962977      -0.00000029       0.00000100      -0.00000000 
O       3.96662529      11.14371360      22.57449726       0.00000062      -0.00000034      -0.00000032 
H       3.68177829      11.63277650      23.37658618       0.00000043      -0.00000023      -0.00000032 
H       4.94645152      11.14072345      22.54252748      -0.00000084      -0.00000014       0.00000012 
O       3.16580085      12.49226093      20.31595216      -0.00000059       0.00000035      -0.00000033 
H       3.45064915      12.00319100      21.11803656      -0.00000041       0.00000023      -0.00000032 
H       2.18597455      12.49524969      20.28398153       0.00000085       0.00000014       0.00000010 
O       0.40042548       8.55292783      22.57449613       0.00000062       0.00000035      -0.00000033 
H       0.11557705       8.06386088      23.37658231       0.00000044       0.00000023      -0.00000031 
H       1.38025172       8.55591248      22.54252581      -0.00000081       0.00000014       0.00000011 
O       6.73200169      15.08304372      20.31595321      -0.00000056      -0.00000033      -0.00000032 
H       7.01684878      15.57210949      21.11804039      -0.00000043      -0.00000024      -0.00000032 
H       5.75217540      15.08004963      20.28398312       0.00000082      -0.00000015       0.00000011 
O       3.95808302      15.11175251      20.33701982       0.00000038      -0.00000023       0.00000031 
H       3.67761022      15.55363299      19.50332079       0.00000012      -0.00000022       0.00000018 
H       3.70833876      14.16151273      20.33530546       0.00000031       0.00000100      -0.00000001 
O       3.17434170       8.52421170      18.07847335      -0.00000036       0.00000023       0.00000032 
H       3.45481388       8.08233750      17.24477080      -0.00000009       0.00000021       0.00000019 
H       3.42408293       9.47445148      18.07676124      -0.00000028      -0.00000099      -0.00000000 
O       0.39188409      12.46355060      20.33701855       0.00000040       0.00000022       0.00000033 
H       0.11141056      12.02167339      19.50331812       0.00000012       0.00000021       0.00000017 
H       0.14214277      13.41379128      20.33530570       0.00000032      -0.00000099      -0.00000001 
O       6.74054373      11.17242874      18.07847491      -0.00000036      -0.00000023       0.00000031 
H       7.02101495      11.61430650      17.24477386      -0.00000009      -0.00000022       0.00000018 
H       6.99028813      10.22218994      18.07676111      -0.00000029       0.00000099      -0.00000000 
O       3.96662031      11.14372075      27.09162670       0.00000059      -0.00000034      -0.00000031 
H       3.68177359      11.63277743      27.89371993       0.00000042      -0.00000023      -0.00000031 
H       4.94644630      11.14072822      27.05966293      -0.00000085      -0.00000014       0.00000013 
O       3.16580317      12.49225513      24.83305652      -0.00000060       0.00000035      -0.00000033 
H       3.45065033      12.00319500      25.63514743      -0.00000043       0.00000023      -0.00000031 
H       2.18597700      12.49524420      24.80108972       0.00000083       0.00000014       0.00000011 
O       0.40042053       8.55292065      27.09162557       0.00000059       0.00000035      -0.00000032 
H       0.11557240       8.06385990      27.89371607       0.00000042       0.00000023      -0.00000031 
H       1.38024653       8.55590768      27.05966124      -0.00000082       0.00000014       0.00000013 
O       6.73200402      15.08304947      24.83305756      -0.00000064      -0.00000033      -0.00000032 
H       7.01684993      15.57210543      25.63515125      -0.00000043      -0.00000023      -0.00000030 
H       5.75217786      15.08005506      24.80109124       0.00000084      -0.00000014       0.00000012 
O       3.95807718      15.11175900      24.85412807       0.00000038      -0.00000021       0.00000033 
H       3.67761094      15.55363544      24.02042417       0.00000010      -0.00000021       0.00000018 
H       3.70833847      14.16151831      24.85240808       0.00000029       0.00000098       0.00000000 
O       3.17434501       8.52420830      22.59556108      -0.00000037       0.00000022       0.00000034 
H       3.45481675       8.08233338      21.76185803      -0.00000009       0.00000021       0.00000019 
H       3.42408571       9.47444794      22.59384761      -0.00000029      -0.00000098       0.00000000 