4224
Lattice="28.78395398356881 8.809092378e-314 0.0 9.748489887e-314 31.822039649062525 0.0 0.0 0.0 27.484343406805163" Properties=species:S:1:pos:R:3:forces:R:3 stress="-0.014598891059094529 -6.4819702e-316 -0.0 -6.4819702e-316 -0.014370147596965805 -0.0 -0.0 -0.0 -0.013083117661327538" cutoff=-1.0 energy=-486.33482023 nneightol=1.2 pbc="T T T"
O       3.99904815       3.29765227       4.56843147       0.00000036      -0.00000055      -0.00000074 
H       3.71807974       3.78330225       5.37208628       0.00000123      -0.00000136      -0.00000194 
H       4.97793303       3.29837257       4.54190302      -0.00000280       0.00000013       0.00000065 
O       3.19695661       4.65784789       2.27807054      -0.00000036       0.00000055      -0.00000074 
H       3.47792440       4.17220377       3.08172931      -0.00000123       0.00000136      -0.00000194 
H       2.21807188       4.65712859       2.25154522       0.00000280      -0.00000013       0.00000065 
O       0.40105391       0.68009839       4.56843145       0.00000036       0.00000055      -0.00000074 
H       0.12008550       0.19444840       5.37208627       0.00000123       0.00000137      -0.00000194 
H       1.37993879       0.67937809       4.54190301      -0.00000280      -0.00000013       0.00000065 
O       6.79495085       7.27541268       2.27807055      -0.00000036      -0.00000055      -0.00000074 
H       7.07591864       7.76105680       3.08172933      -0.00000123      -0.00000136      -0.00000194 
H       5.81606612       7.27613198       2.25154523       0.00000280       0.00000013       0.00000065 
O       3.99559510       7.30609548       2.30335167       0.00000098       0.00000029       0.00000098 
H       3.71097368       7.74300087       1.47066917       0.00000036      -0.00000120       0.00000229 
H       3.74417621       6.35786256       2.29500356       0.00000093       0.00000341      -0.00000028 
O       3.20041013       0.64940624       0.01297392      -0.00000098      -0.00000029       0.00000098 
H       3.48502920       0.21250158      -0.81971015      -0.00000036       0.00000120       0.00000229 
H       3.45182658       1.59763950       0.00462262      -0.00000093      -0.00000341      -0.00000028 
O       0.39760086       4.62716509       2.30335166       0.00000098      -0.00000029       0.00000098 
H       0.11297944       4.19025969       1.47066916       0.00000036       0.00000120       0.00000229 
H       0.14618196       5.57539801       2.29500355       0.00000093      -0.00000341      -0.00000028 
O       6.79840438       3.32834441       0.01297393      -0.00000098       0.00000029       0.00000098 
H       7.08302345       3.76524907      -0.81971014      -0.00000036      -0.00000120       0.00000229 
H       7.04982082       2.38011116       0.00462263      -0.00000093       0.00000341      -0.00000028 
O       3.99905057       3.29765194       9.14912511       0.00000036      -0.00000055      -0.00000074 
H       3.71808437       3.78329617       9.95278400       0.00000123      -0.00000136      -0.00000195 
H       4.97793552       3.29837342       9.12259366      -0.00000280       0.00000013       0.00000065 
O       3.19695081       4.65785587       6.85877764      -0.00000036       0.00000055      -0.00000074 
H       3.47791832       4.17220596       7.66243262      -0.00000123       0.00000136      -0.00000195 
H       2.21806584       4.65713468       6.83224627       0.00000280      -0.00000013       0.00000065 
O       0.40105633       0.68009871       9.14912510       0.00000036       0.00000055      -0.00000074 
H       0.12009012       0.19445448       9.95278399       0.00000123       0.00000136      -0.00000194 
H       1.37994127       0.67937723       9.12259366      -0.00000280      -0.00000013       0.00000065 
O       6.79494505       7.27540469       6.85877765      -0.00000036      -0.00000055      -0.00000074 
H       7.07591256       7.76105461       7.66243263      -0.00000123      -0.00000136      -0.00000195 
H       5.81606008       7.27612588       6.83224628       0.00000280       0.00000013       0.00000065 
O       3.99559830       7.30609197       6.88405253       0.00000098       0.00000029       0.00000098 
H       3.71096917       7.74300390       6.05137600       0.00000036      -0.00000120       0.00000229 
H       3.74417326       6.35786039       6.87570783       0.00000093       0.00000341      -0.00000028 
O       3.20040326       0.64941351       4.59370950      -0.00000098      -0.00000029       0.00000098 
H       3.48502969       0.21250442       3.76103077      -0.00000036       0.00000120       0.00000229 
H       3.45182647       1.59764557       4.58536458      -0.00000093      -0.00000341      -0.00000028 
O       0.39760406       4.62716860       6.88405252       0.00000098      -0.00000029       0.00000098 
H       0.11297494       4.19025666       6.05137598       0.00000036       0.00000120       0.00000229 
H       0.14617902       5.57540018       6.87570782       0.00000093      -0.00000341      -0.00000028 
O       6.79839750       3.32833715       4.59370952      -0.00000098       0.00000029       0.00000098 
H       7.08302393       3.76524624       3.76103078      -0.00000036      -0.00000120       0.00000229 
H       7.04982071       2.38010508       4.58536459      -0.00000093       0.00000341      -0.00000028 
O       3.99904484       3.29766027      13.72986443       0.00000036      -0.00000055      -0.00000074 
H       3.71807840       3.78329809      14.53352751       0.00000123      -0.00000136      -0.00000194 
H       4.97792953       3.29837977      13.70333946      -0.00000280       0.00000013       0.00000065 
O       3.19695346       4.65784859      11.43948709      -0.00000036       0.00000055      -0.00000074 
H       3.47791920       4.17221051      12.24315005      -0.00000123       0.00000136      -0.00000194 
H       2.21806865       4.65712777      11.41295882       0.00000280      -0.00000013       0.00000065 
O       0.40105058       0.68009038      13.72986443       0.00000036       0.00000055      -0.00000074 
H       0.12008415       0.19445256      14.53352751       0.00000123       0.00000137      -0.00000195 
H       1.37993528       0.67937089      13.70333946      -0.00000280      -0.00000013       0.00000065 
O       6.79494772       7.27541198      11.43948709      -0.00000036      -0.00000055      -0.00000074 
H       7.07591345       7.76105006      12.24315005      -0.00000123      -0.00000136      -0.00000195 
H       5.81606290       7.27613279      11.41295882       0.00000280       0.00000013       0.00000065 
O       3.99559154       7.30609914      11.46476313       0.00000098       0.00000029       0.00000098 
H       3.71096932       7.74300703      10.63208161       0.00000036      -0.00000120       0.00000228 
H       3.74417267       6.35786651      11.45641247       0.00000093       0.00000341      -0.00000028 
O       3.20040615       0.64941050       9.17439819      -0.00000098      -0.00000029       0.00000098 
H       3.48503336       0.21249902       8.34172040      -0.00000036       0.00000120       0.00000229 
H       3.45182926       1.59764232       9.16605081      -0.00000093      -0.00000341      -0.00000028 
O       0.39759730       4.62716143      11.46476312       0.00000098      -0.00000029       0.00000098 
H       0.11297507       4.19025354      10.63208160       0.00000036       0.00000120       0.00000229 
H       0.14617842       5.57539405      11.45641246       0.00000093      -0.00000341      -0.00000028 
O       6.79840040       3.32834015       9.17439819      -0.00000098       0.00000029       0.00000098 
H       7.08302761       3.76525163       8.34172041      -0.00000036      -0.00000120       0.00000229 
H       7.04982351       2.38010834       9.16605081      -0.00000093       0.00000341      -0.00000028 
O       3.99904816       3.29765226      18.31060316       0.00000036      -0.00000055      -0.00000074 
H       3.71807975       3.78330225      19.11425798       0.00000123      -0.00000136      -0.00000195 
H       4.97793303       3.29837256      18.28407471      -0.00000280       0.00000013       0.00000065 
O       3.19695659       4.65784789      16.02024224      -0.00000036       0.00000055      -0.00000074 
H       3.47792439       4.17220376      16.82390102      -0.00000123       0.00000136      -0.00000195 
H       2.21807187       4.65712859      15.99371693       0.00000280      -0.00000013       0.00000065 
O       0.40105390       0.68009839      18.31060316       0.00000036       0.00000055      -0.00000074 
H       0.12008549       0.19444840      19.11425798       0.00000123       0.00000137      -0.00000194 
H       1.37993877       0.67937809      18.28407472      -0.00000280      -0.00000013       0.00000065 
O       6.79495085       7.27541268      16.02024224      -0.00000036      -0.00000055      -0.00000074 
H       7.07591865       7.76105680      16.82390102      -0.00000123      -0.00000136      -0.00000195 
H       5.81606612       7.27613198      15.99371693       0.00000280       0.00000013       0.00000065 
O       3.99559510       7.30609548      16.04552338       0.00000098       0.00000029       0.00000098 
H       3.71097367       7.74300088      15.21284088       0.00000036      -0.00000120       0.00000229 
H       3.74417620       6.35786256      16.03717527       0.00000093       0.00000341      -0.00000028 
O       3.20041011       0.64940624      13.75514564      -0.00000098      -0.00000029       0.00000098 
H       3.48502918       0.21250158      12.92246157      -0.00000036       0.00000120       0.00000229 
H       3.45182656       1.59763950      13.74679434      -0.00000093      -0.00000341      -0.00000028 
O       0.39760084       4.62716508      16.04552338       0.00000098      -0.00000029       0.00000098 
H       0.11297941       4.19025969      15.21284088       0.00000036       0.00000120       0.00000229 
H       0.14618194       5.57539800      16.03717527       0.00000093      -0.00000341      -0.00000028 
O       6.79840437       3.32834441      13.75514564      -0.00000098       0.00000029       0.00000098 
H       7.08302344       3.76524907      12.92246157      -0.00000036      -0.00000120       0.00000229 
H       7.04982082       2.38011116      13.74679434      -0.00000093       0.00000341      -0.00000028 
O       3.99905059       3.29765194      22.89129679       0.00000036      -0.00000055      -0.00000074 
H       3.71808439       3.78329617      23.69495567       0.00000123      -0.00000137      -0.00000194 
H       4.97793554       3.29837343      22.86476534      -0.00000280       0.00000013       0.00000065 
O       3.19695081       4.65785588      20.60094932      -0.00000036       0.00000055      -0.00000074 
H       3.47791833       4.17220596      21.40460430      -0.00000123       0.00000136      -0.00000194 
H       2.21806585       4.65713469      20.57441795       0.00000280      -0.00000013       0.00000065 
O       0.40105634       0.68009871      22.89129679       0.00000036       0.00000055      -0.00000074 
H       0.12009014       0.19445448      23.69495568       0.00000123       0.00000136      -0.00000195 
H       1.37994129       0.67937723      22.86476534      -0.00000280      -0.00000013       0.00000065 
O       6.79494507       7.27540469      20.60094932      -0.00000036      -0.00000055      -0.00000074 
H       7.07591258       7.76105461      21.40460430      -0.00000123      -0.00000136      -0.00000194 
H       5.81606010       7.27612588      20.57441795       0.00000280       0.00000013       0.00000065 
O       3.99559832       7.30609197      20.62622421       0.00000098       0.00000029       0.00000098 
H       3.71096918       7.74300391      19.79354768       0.00000036      -0.00000120       0.00000229 
H       3.74417328       6.35786039      20.61787951       0.00000093       0.00000341      -0.00000028 
O       3.20040325       0.64941351      18.33588120      -0.00000098      -0.00000029       0.00000098 
H       3.48502968       0.21250441      17.50320247      -0.00000036       0.00000120       0.00000229 
H       3.45182647       1.59764557      18.32753628      -0.00000093      -0.00000341      -0.00000028 
O       0.39760406       4.62716860      20.62622422       0.00000098      -0.00000029       0.00000098 
H       0.11297493       4.19025666      19.79354768       0.00000036       0.00000120       0.00000229 
H       0.14617902       5.57540018      20.61787951       0.00000093      -0.00000341      -0.00000028 
O       6.79839751       3.32833715      18.33588120      -0.00000098       0.00000029       0.00000098 
H       7.08302395       3.76524624      17.50320246      -0.00000036      -0.00000120       0.00000229 
H       7.04982073       2.38010508      18.32753627      -0.00000093       0.00000341      -0.00000028 
O       3.99904485       3.29766028      27.47203612       0.00000036      -0.00000055      -0.00000074 
H       3.71807842       3.78329809      28.27569920       0.00000123      -0.00000136      -0.00000194 
H       4.97792955       3.29837977      27.44551115      -0.00000280       0.00000013       0.00000065 
O       3.19695349       4.65784859      25.18165877      -0.00000036       0.00000055      -0.00000074 
H       3.47791922       4.17221051      25.98532173      -0.00000123       0.00000136      -0.00000194 
H       2.21806867       4.65712778      25.15513049       0.00000280      -0.00000013       0.00000065 
O       0.40105061       0.68009038      27.47203611       0.00000036       0.00000055      -0.00000074 
H       0.12008417       0.19445257      28.27569919       0.00000123       0.00000136      -0.00000194 
H       1.37993530       0.67937089      27.44551115      -0.00000280      -0.00000013       0.00000065 
O       6.79494773       7.27541198      25.18165878      -0.00000036      -0.00000055      -0.00000074 
H       7.07591346       7.76105006      25.98532174      -0.00000123      -0.00000136      -0.00000195 
H       5.81606292       7.27613280      25.15513050       0.00000280       0.00000013       0.00000065 
O       3.99559156       7.30609914      25.20693481       0.00000098       0.00000029       0.00000098 
H       3.71096934       7.74300703      24.37425328       0.00000036      -0.00000120       0.00000229 
H       3.74417269       6.35786651      25.19858414       0.00000093       0.00000341      -0.00000028 
O       3.20040616       0.64941050      22.91656987      -0.00000098      -0.00000029       0.00000098 
H       3.48503338       0.21249902      22.08389208      -0.00000036       0.00000120       0.00000229 
H       3.45182928       1.59764232      22.90822248      -0.00000093      -0.00000341      -0.00000028 
O       0.39759732       4.62716143      25.20693480       0.00000098      -0.00000029       0.00000098 
H       0.11297509       4.19025353      24.37425328       0.00000036       0.00000120       0.00000229 
H       0.14617844       5.57539405      25.19858414       0.00000093      -0.00000341      -0.00000028 
O       6.79840042       3.32834016      22.91656987      -0.00000098       0.00000029       0.00000098 
H       7.08302763       3.76525163      22.08389209      -0.00000036      -0.00000120       0.00000229 
H       7.04982353       2.38010834      22.90822249      -0.00000093       0.00000341      -0.00000028 
O       3.99904815      11.25316218       4.56843147       0.00000036      -0.00000055      -0.00000074 
H       3.71807974      11.73881216       5.37208629       0.00000123      -0.00000137      -0.00000194 
H       4.97793303      11.25388248       4.54190303      -0.00000280       0.00000013       0.00000065 
O       3.19695661      12.61335780       2.27807054      -0.00000036       0.00000055      -0.00000074 
H       3.47792440      12.12771368       3.08172932      -0.00000123       0.00000136      -0.00000194 
H       2.21807188      12.61263850       2.25154523       0.00000280      -0.00000013       0.00000065 
O       0.40105391       8.63560830       4.56843146       0.00000036       0.00000055      -0.00000074 
H       0.12008550       8.14995831       5.37208628       0.00000123       0.00000137      -0.00000194 
H       1.37993879       8.63488800       4.54190302      -0.00000280      -0.00000013       0.00000065 
O       6.79495084      15.23092259       2.27807055      -0.00000036      -0.00000055      -0.00000074 
H       7.07591864      15.71656672       3.08172933      -0.00000123      -0.00000137      -0.00000195 
H       5.81606612      15.23164190       2.25154524       0.00000280       0.00000013       0.00000065 
O       3.99559510      15.26160540       2.30335168       0.00000098       0.00000029       0.00000098 
H       3.71097368      15.69851079       1.47066917       0.00000036      -0.00000120       0.00000229 
H       3.74417621      14.31337247       2.29500356       0.00000093       0.00000341      -0.00000028 
O       3.20041014       8.60491615       0.01297392      -0.00000098      -0.00000029       0.00000098 
H       3.48502920       8.16801149      -0.81971015      -0.00000036       0.00000120       0.00000229 
H       3.45182658       9.55314941       0.00462263      -0.00000093      -0.00000341      -0.00000028 
O       0.39760086      12.58267500       2.30335167       0.00000099      -0.00000029       0.00000098 
H       0.11297944      12.14576960       1.47066917       0.00000036       0.00000120       0.00000229 
H       0.14618196      13.53090792       2.29500356       0.00000093      -0.00000341      -0.00000028 
O       6.79840438      11.28385432       0.01297394      -0.00000098       0.00000029       0.00000098 
H       7.08302344      11.72075898      -0.81971013      -0.00000036      -0.00000120       0.00000229 
H       7.04982082      10.33562107       0.00462264      -0.00000093       0.00000341      -0.00000028 
O       3.99905057      11.25316185       9.14912512       0.00000036      -0.00000055      -0.00000074 
H       3.71808437      11.73880608       9.95278400       0.00000123      -0.00000136      -0.00000195 
H       4.97793552      11.25388334       9.12259367      -0.00000280       0.00000013       0.00000065 
O       3.19695081      12.61336579       6.85877765      -0.00000036       0.00000055      -0.00000074 
H       3.47791832      12.12771587       7.66243263      -0.00000123       0.00000136      -0.00000195 
H       2.21806584      12.61264460       6.83224628       0.00000280      -0.00000013       0.00000065 
O       0.40105633       8.63560862       9.14912511       0.00000036       0.00000055      -0.00000074 
H       0.12009012       8.14996439       9.95278399       0.00000123       0.00000136      -0.00000195 
H       1.37994127       8.63488714       9.12259366      -0.00000280      -0.00000013       0.00000065 
O       6.79494504      15.23091461       6.85877765      -0.00000036      -0.00000055      -0.00000074 
H       7.07591256      15.71656453       7.66243263      -0.00000122      -0.00000137      -0.00000195 
H       5.81606008      15.23163580       6.83224628       0.00000280       0.00000013       0.00000065 
O       3.99559830      15.26160188       6.88405254       0.00000099       0.00000029       0.00000098 
H       3.71096917      15.69851382       6.05137600       0.00000036      -0.00000120       0.00000229 
H       3.74417326      14.31337030       6.87570783       0.00000093       0.00000341      -0.00000028 
O       3.20040326       8.60492342       4.59370951      -0.00000098      -0.00000029       0.00000098 
H       3.48502969       8.16801433       3.76103078      -0.00000036       0.00000120       0.00000229 
H       3.45182647       9.55315548       4.58536459      -0.00000093      -0.00000341      -0.00000028 
O       0.39760406      12.58267851       6.88405253       0.00000098      -0.00000029       0.00000098 
H       0.11297493      12.14576658       6.05137599       0.00000036       0.00000120       0.00000229 
H       0.14617902      13.53091009       6.87570782       0.00000093      -0.00000341      -0.00000028 
O       6.79839750      11.28384706       4.59370952      -0.00000098       0.00000029       0.00000098 
H       7.08302393      11.72075615       3.76103079      -0.00000036      -0.00000120       0.00000229 
H       7.04982071      10.33561499       4.58536460      -0.00000093       0.00000341      -0.00000028 
O       3.99904484      11.25317019      13.72986444       0.00000036      -0.00000055      -0.00000074 
H       3.71807840      11.73880801      14.53352751       0.00000123      -0.00000136      -0.00000194 
H       4.97792953      11.25388968      13.70333947      -0.00000280       0.00000013       0.00000065 
O       3.19695346      12.61335850      11.43948710      -0.00000036       0.00000055      -0.00000074 
H       3.47791920      12.12772042      12.24315006      -0.00000123       0.00000137      -0.00000195 
H       2.21806865      12.61263769      11.41295882       0.00000280      -0.00000013       0.00000065 
O       0.40105059       8.63560029      13.72986444       0.00000036       0.00000055      -0.00000074 
H       0.12008415       8.14996247      14.53352751       0.00000123       0.00000136      -0.00000194 
H       1.37993528       8.63488080      13.70333947      -0.00000280      -0.00000013       0.00000065 
O       6.79494771      15.23092190      11.43948710      -0.00000036      -0.00000055      -0.00000074 
H       7.07591345      15.71655998      12.24315005      -0.00000122      -0.00000136      -0.00000195 
H       5.81606290      15.23164271      11.41295882       0.00000280       0.00000013       0.00000065 
O       3.99559154      15.26160906      11.46476313       0.00000098       0.00000029       0.00000098 
H       3.71096932      15.69851695      10.63208161       0.00000036      -0.00000120       0.00000228 
H       3.74417267      14.31337643      11.45641247       0.00000093       0.00000341      -0.00000028 
O       3.20040615       8.60492041       9.17439819      -0.00000098      -0.00000029       0.00000098 
H       3.48503336       8.16800893       8.34172041      -0.00000036       0.00000120       0.00000229 
H       3.45182927       9.55315223       9.16605081      -0.00000093      -0.00000341      -0.00000028 
O       0.39759729      12.58267134      11.46476313       0.00000098      -0.00000029       0.00000098 
H       0.11297507      12.14576345      10.63208160       0.00000036       0.00000120       0.00000228 
H       0.14617842      13.53090397      11.45641247       0.00000093      -0.00000341      -0.00000028 
O       6.79840040      11.28385007       9.17439820      -0.00000098       0.00000029       0.00000098 
H       7.08302761      11.72076154       8.34172042      -0.00000036      -0.00000120       0.00000228 
H       7.04982351      10.33561825       9.16605082      -0.00000093       0.00000341      -0.00000028 
O       3.99904816      11.25316218      18.31060317       0.00000036      -0.00000055      -0.00000074 
H       3.71807975      11.73881217      19.11425798       0.00000123      -0.00000136      -0.00000195 
H       4.97793303      11.25388248      18.28407472      -0.00000280       0.00000013       0.00000065 
O       3.19695659      12.61335781      16.02024225      -0.00000036       0.00000055      -0.00000074 
H       3.47792439      12.12771368      16.82390103      -0.00000123       0.00000136      -0.00000194 
H       2.21807186      12.61263851      15.99371694       0.00000280      -0.00000013       0.00000065 
O       0.40105390       8.63560830      18.31060317       0.00000036       0.00000055      -0.00000074 
H       0.12008549       8.14995832      19.11425799       0.00000123       0.00000136      -0.00000194 
H       1.37993877       8.63488801      18.28407472      -0.00000280      -0.00000013       0.00000065 
O       6.79495085      15.23092260      16.02024225      -0.00000036      -0.00000055      -0.00000074 
H       7.07591864      15.71656672      16.82390102      -0.00000123      -0.00000137      -0.00000194 
H       5.81606612      15.23164190      15.99371693       0.00000280       0.00000013       0.00000065 
O       3.99559509      15.26160540      16.04552338       0.00000098       0.00000029       0.00000098 
H       3.71097366      15.69851079      15.21284088       0.00000036      -0.00000120       0.00000229 
H       3.74417620      14.31337248      16.03717527       0.00000093       0.00000341      -0.00000028 
O       3.20041011       8.60491615      13.75514564      -0.00000098      -0.00000029       0.00000098 
H       3.48502918       8.16801149      12.92246158      -0.00000036       0.00000120       0.00000229 
H       3.45182656       9.55314941      13.74679435      -0.00000093      -0.00000341      -0.00000028 
O       0.39760084      12.58267500      16.04552339       0.00000099      -0.00000029       0.00000098 
H       0.11297941      12.14576961      15.21284088       0.00000036       0.00000120       0.00000229 
H       0.14618194      13.53090792      16.03717528       0.00000093      -0.00000341      -0.00000028 
O       6.79840437      11.28385433      13.75514564      -0.00000098       0.00000029       0.00000098 
H       7.08302344      11.72075899      12.92246157      -0.00000036      -0.00000120       0.00000229 
H       7.04982082      10.33562107      13.74679435      -0.00000093       0.00000341      -0.00000028 
O       3.99905059      11.25316185      22.89129679       0.00000036      -0.00000055      -0.00000074 
H       3.71808439      11.73880608      23.69495568       0.00000123      -0.00000136      -0.00000194 
H       4.97793554      11.25388334      22.86476534      -0.00000280       0.00000013       0.00000065 
O       3.19695081      12.61336579      20.60094933      -0.00000036       0.00000055      -0.00000074 
H       3.47791833      12.12771587      21.40460431      -0.00000123       0.00000137      -0.00000194 
H       2.21806585      12.61264460      20.57441796       0.00000280      -0.00000013       0.00000065 
O       0.40105634       8.63560863      22.89129679       0.00000036       0.00000055      -0.00000074 
H       0.12009014       8.14996439      23.69495568       0.00000123       0.00000137      -0.00000195 
H       1.37994129       8.63488714      22.86476534      -0.00000280      -0.00000013       0.00000065 
O       6.79494506      15.23091461      20.60094933      -0.00000036      -0.00000055      -0.00000074 
H       7.07591257      15.71656453      21.40460431      -0.00000123      -0.00000136      -0.00000195 
H       5.81606010      15.23163580      20.57441796       0.00000280       0.00000013       0.00000065 
O       3.99559832      15.26160188      20.62622422       0.00000098       0.00000029       0.00000098 
H       3.71096918      15.69851382      19.79354768       0.00000036      -0.00000120       0.00000229 
H       3.74417328      14.31337031      20.61787952       0.00000093       0.00000341      -0.00000028 
O       3.20040325       8.60492342      18.33588121      -0.00000098      -0.00000029       0.00000098 
H       3.48502969       8.16801433      17.50320247      -0.00000036       0.00000120       0.00000229 
H       3.45182647       9.55315548      18.32753628      -0.00000093      -0.00000341      -0.00000028 
O       0.39760406      12.58267852      20.62622422       0.00000099      -0.00000029       0.00000098 
H       0.11297493      12.14576658      19.79354769       0.00000036       0.00000120       0.00000229 
H       0.14617902      13.53091009      20.61787952       0.00000093      -0.00000341      -0.00000028 
O       6.79839751      11.28384706      18.33588121      -0.00000098       0.00000029       0.00000098 
H       7.08302394      11.72075616      17.50320247      -0.00000036      -0.00000120       0.00000229 
H       7.04982073      10.33561500      18.32753628      -0.00000093       0.00000341      -0.00000028 
O       3.99904485      11.25317019      27.47203613       0.00000036      -0.00000055      -0.00000074 
H       3.71807841      11.73880800      28.27569921       0.00000123      -0.00000136      -0.00000194 
H       4.97792955      11.25388968      27.44551116      -0.00000280       0.00000013       0.00000065 
O       3.19695349      12.61335850      25.18165878      -0.00000036       0.00000055      -0.00000074 
H       3.47791922      12.12772042      25.98532174      -0.00000123       0.00000136      -0.00000194 
H       2.21806867      12.61263769      25.15513050       0.00000280      -0.00000013       0.00000065 
O       0.40105061       8.63560029      27.47203612       0.00000036       0.00000055      -0.00000074 
H       0.12008417       8.14996247      28.27569920       0.00000123       0.00000136      -0.00000194 
H       1.37993530       8.63488080      27.44551115      -0.00000280      -0.00000013       0.00000065 
O       6.79494773      15.23092190      25.18165878      -0.00000036      -0.00000055      -0.00000074 
H       7.07591346      15.71655997      25.98532174      -0.00000123      -0.00000137      -0.00000194 
H       5.81606291      15.23164271      25.15513051       0.00000280       0.00000013       0.00000065 
O       3.99559156      15.26160906      25.20693481       0.00000098       0.00000029       0.00000098 
H       3.71096934      15.69851695      24.37425329       0.00000036      -0.00000120       0.00000229 
H       3.74417269      14.31337643      25.19858415       0.00000093       0.00000341      -0.00000028 
O       3.20040616       8.60492041      22.91656987      -0.00000098      -0.00000029       0.00000098 
H       3.48503338       8.16800893      22.08389209      -0.00000036       0.00000120       0.00000229 
H       3.45182928       9.55315223      22.90822249      -0.00000093      -0.00000341      -0.00000028 