4224
Lattice="29.01980232115394 1.99445465623e-313 0.0 2.2060312082e-313 32.07719377036473 0.0 0.0 0.0 27.687082277049242" Properties=species:S:1:pos:R:3:forces:R:3 stress="-0.011218686420970389 -6.33144517e-316 -0.0 -6.33144517e-316 -0.01095475247473226 -0.0 -0.0 -0.0 -0.010079097392678166" cutoff=-1.0 energy=-492.699255978 nneightol=1.2 pbc="T T T"
O       4.03105887       3.32360668       4.60041955       0.00000028      -0.00000043      -0.00000069 
H       3.75164403       3.80865256       5.40392649       0.00000108      -0.00000120      -0.00000198 
H       5.00924362       3.32680673       4.57805881      -0.00000259       0.00000020       0.00000052 
O       3.22391479       4.69567117       2.29316426      -0.00000027       0.00000043      -0.00000070 
H       3.50332907       4.21063152       3.09667536      -0.00000108       0.00000120      -0.00000198 
H       2.24573019       4.69247202       2.27080662       0.00000259      -0.00000020       0.00000052 
O       0.40358358       0.68602807       4.60041954       0.00000027       0.00000043      -0.00000070 
H       0.12416874       0.20098218       5.40392648       0.00000108       0.00000120      -0.00000198 
H       1.38176833       0.68282802       4.57805880      -0.00000259      -0.00000020       0.00000052 
O       6.85139007       7.33326202       2.29316429      -0.00000027      -0.00000044      -0.00000069 
H       7.13080435       7.81830167       3.09667539      -0.00000108      -0.00000120      -0.00000198 
H       5.87320547       7.33646118       2.27080665       0.00000259       0.00000019       0.00000052 
O       4.03040043       7.36634874       2.32328101       0.00000075       0.00000042       0.00000096 
H       3.74217082       7.80077118       1.49176391       0.00000033      -0.00000096       0.00000231 
H       3.77733606       6.41970074       2.31032643       0.00000080       0.00000311      -0.00000017 
O       3.22457367       0.65293120       0.01600600      -0.00000075      -0.00000041       0.00000096 
H       3.51280124       0.21850901      -0.81551226      -0.00000033       0.00000096       0.00000231 
H       3.47763553       1.59957954       0.00304787      -0.00000080      -0.00000311      -0.00000017 
O       0.40292515       4.66258445       2.32328099       0.00000075      -0.00000042       0.00000096 
H       0.11469554       4.22816202       1.49176389       0.00000032       0.00000096       0.00000231 
H       0.14986078       5.60923246       2.31032642       0.00000080      -0.00000311      -0.00000017 
O       6.85204896       3.35670354       0.01600601      -0.00000075       0.00000042       0.00000095 
H       7.14027654       3.79112573      -0.81551225      -0.00000032      -0.00000096       0.00000231 
H       7.10511082       2.41005519       0.00304788      -0.00000080       0.00000311      -0.00000017 
O       4.03106127       3.32360674       9.21489983       0.00000028      -0.00000043      -0.00000070 
H       3.75164943       3.80864546      10.01841204       0.00000108      -0.00000120      -0.00000198 
H       5.00924609       3.32680759       9.19253529      -0.00000259       0.00000020       0.00000052 
O       3.22390870       4.69567990       6.90765879      -0.00000028       0.00000043      -0.00000069 
H       3.50332223       4.21063459       7.71116639      -0.00000108       0.00000120      -0.00000198 
H       2.24572386       4.69247921       6.88529476       0.00000259      -0.00000020       0.00000052 
O       0.40358598       0.68602802       9.21489980       0.00000027       0.00000043      -0.00000070 
H       0.12417414       0.20098929      10.01841201       0.00000108       0.00000120      -0.00000198 
H       1.38177080       0.68282717       9.19253527      -0.00000259      -0.00000020       0.00000052 
O       6.85138397       7.33325329       6.90765881      -0.00000028      -0.00000044      -0.00000070 
H       7.13079750       7.81829860       7.71116641      -0.00000108      -0.00000120      -0.00000198 
H       5.87319913       7.33645399       6.88529478       0.00000259       0.00000020       0.00000052 
O       4.03040454       7.36634438       6.93777083       0.00000075       0.00000042       0.00000096 
H       3.74216597       7.80077458       6.10626088       0.00000033      -0.00000096       0.00000231 
H       3.77733317       6.41969793       6.92481909       0.00000080       0.00000311      -0.00000017 
O       3.22456602       0.65293910       4.63053430      -0.00000075      -0.00000042       0.00000096 
H       3.51280115       0.21851255       3.79902140      -0.00000033       0.00000096       0.00000231 
H       3.47763520       1.59958613       4.61758280      -0.00000080      -0.00000312      -0.00000017 
O       0.40292927       4.66258882       6.93777081       0.00000075      -0.00000042       0.00000096 
H       0.11469070       4.22815862       6.10626086       0.00000033       0.00000096       0.00000231 
H       0.14985789       5.60923526       6.92481908       0.00000080      -0.00000311      -0.00000017 
O       6.85204131       3.35669564       4.63053431      -0.00000075       0.00000042       0.00000096 
H       7.14027643       3.79112220       3.79902141      -0.00000033      -0.00000096       0.00000231 
H       7.10511048       2.41004862       4.61758280      -0.00000080       0.00000312      -0.00000017 
O       4.03105526       3.32361593      13.82943119       0.00000027      -0.00000043      -0.00000069 
H       3.75164274       3.80864827      14.63294737       0.00000108      -0.00000120      -0.00000198 
H       5.00923982       3.32681513      13.80707345      -0.00000259       0.00000020       0.00000052 
O       3.22391162       4.69567149      11.52215708      -0.00000028       0.00000044      -0.00000069 
H       3.50332300       4.21063941      12.32567365      -0.00000108       0.00000120      -0.00000198 
H       2.24572694       4.69247122      11.49979563       0.00000259      -0.00000020       0.00000052 
O       0.40357996       0.68601882      13.82943116       0.00000027       0.00000044      -0.00000069 
H       0.12416744       0.20098647      14.63294734       0.00000108       0.00000120      -0.00000198 
H       1.38176452       0.68281962      13.80707342      -0.00000259      -0.00000020       0.00000052 
O       6.85138689       7.33326169      11.52215710      -0.00000027      -0.00000043      -0.00000070 
H       7.13079828       7.81829378      12.32567368      -0.00000108      -0.00000120      -0.00000198 
H       5.87320221       7.33646198      11.49979566       0.00000259       0.00000020       0.00000052 
O       4.03039712       7.36635207      11.55226825       0.00000074       0.00000041       0.00000095 
H       3.74216554       7.80077842      10.72075340       0.00000033      -0.00000097       0.00000231 
H       3.77733234       6.41970447      11.53931026       0.00000080       0.00000311      -0.00000018 
O       3.22456869       0.65293643       9.24500918      -0.00000075      -0.00000042       0.00000096 
H       3.51280566       0.21850619       8.41349840      -0.00000033       0.00000096       0.00000231 
H       3.47763815       1.59958311       9.23205441      -0.00000080      -0.00000312      -0.00000018 
O       0.40292183       4.66258113      11.55226822       0.00000075      -0.00000042       0.00000096 
H       0.11469026       4.22815478      10.72075337       0.00000033       0.00000096       0.00000231 
H       0.14985705       5.60922872      11.53931024       0.00000080      -0.00000312      -0.00000018 
O       6.85204398       3.35669832       9.24500919      -0.00000075       0.00000041       0.00000096 
H       7.14028095       3.79112856       8.41349842      -0.00000033      -0.00000096       0.00000231 
H       7.10511343       2.41005164       9.23205442      -0.00000080       0.00000311      -0.00000017 
O       4.03105887       3.32360668      18.44396069       0.00000028      -0.00000043      -0.00000069 
H       3.75164403       3.80865256      19.24746763       0.00000108      -0.00000120      -0.00000198 
H       5.00924362       3.32680672      18.42159995      -0.00000259       0.00000020       0.00000052 
O       3.22391480       4.69567117      16.13670542      -0.00000028       0.00000043      -0.00000070 
H       3.50332908       4.21063152      16.94021651      -0.00000108       0.00000120      -0.00000199 
H       2.24573020       4.69247202      16.11434777       0.00000259      -0.00000020       0.00000052 
O       0.40358357       0.68602806      18.44396066       0.00000028       0.00000044      -0.00000068 
H       0.12416873       0.20098218      19.24746760       0.00000108       0.00000120      -0.00000198 
H       1.38176832       0.68282802      18.42159992      -0.00000259      -0.00000020       0.00000052 
O       6.85139008       7.33326202      16.13670544      -0.00000028      -0.00000044      -0.00000069 
H       7.13080437       7.81830166      16.94021654      -0.00000108      -0.00000120      -0.00000199 
H       5.87320548       7.33646117      16.11434781       0.00000259       0.00000020       0.00000052 
O       4.03040044       7.36634874      16.16682217       0.00000075       0.00000041       0.00000096 
H       3.74217083       7.80077117      15.33530507       0.00000033      -0.00000096       0.00000231 
H       3.77733607       6.41970073      16.15386759       0.00000080       0.00000311      -0.00000017 
O       3.22457369       0.65293120      13.85954714      -0.00000075      -0.00000042       0.00000096 
H       3.51280127       0.21850901      13.02802888      -0.00000033       0.00000096       0.00000231 
H       3.47763556       1.59957955      13.84658902      -0.00000080      -0.00000311      -0.00000017 
O       0.40292515       4.66258446      16.16682214       0.00000075      -0.00000042       0.00000096 
H       0.11469554       4.22816203      15.33530504       0.00000033       0.00000096       0.00000231 
H       0.14986077       5.60923246      16.15386757       0.00000080      -0.00000312      -0.00000017 
O       6.85204899       3.35670354      13.85954717      -0.00000075       0.00000042       0.00000096 
H       7.14027656       3.79112573      13.02802891      -0.00000032      -0.00000096       0.00000231 
H       7.10511084       2.41005519      13.84658904      -0.00000080       0.00000311      -0.00000017 
O       4.03106125       3.32360673      23.05844095       0.00000027      -0.00000043      -0.00000069 
H       3.75164941       3.80864546      23.86195316       0.00000108      -0.00000120      -0.00000198 
H       5.00924607       3.32680758      23.03607641      -0.00000259       0.00000020       0.00000052 
O       3.22390869       4.69567990      20.75119992      -0.00000027       0.00000043      -0.00000069 
H       3.50332221       4.21063459      21.55470751      -0.00000108       0.00000120      -0.00000198 
H       2.24572384       4.69247921      20.72883588       0.00000259      -0.00000020       0.00000052 
O       0.40358595       0.68602801      23.05844093       0.00000028       0.00000043      -0.00000069 
H       0.12417411       0.20098928      23.86195314       0.00000108       0.00000120      -0.00000198 
H       1.38177077       0.68282716      23.03607639      -0.00000259      -0.00000020       0.00000052 
O       6.85138398       7.33325329      20.75119995      -0.00000028      -0.00000043      -0.00000069 
H       7.13079751       7.81829860      21.55470754      -0.00000108      -0.00000120      -0.00000198 
H       5.87319914       7.33645398      20.72883592       0.00000259       0.00000020       0.00000052 
O       4.03040455       7.36634438      20.78131196       0.00000075       0.00000041       0.00000095 
H       3.74216597       7.80077458      19.94980202       0.00000033      -0.00000096       0.00000231 
H       3.77733317       6.41969793      20.76836023       0.00000080       0.00000311      -0.00000017 
O       3.22456602       0.65293910      18.47407544      -0.00000075      -0.00000042       0.00000096 
H       3.51280115       0.21851255      17.64256254      -0.00000033       0.00000096       0.00000231 
H       3.47763520       1.59958612      18.46112393      -0.00000080      -0.00000311      -0.00000017 
O       0.40292925       4.66258882      20.78131193       0.00000075      -0.00000042       0.00000097 
H       0.11469068       4.22815862      19.94980199       0.00000033       0.00000096       0.00000231 
H       0.14985787       5.60923526      20.76836020       0.00000080      -0.00000311      -0.00000017 
O       6.85204132       3.35669564      18.47407547      -0.00000075       0.00000041       0.00000095 
H       7.14027645       3.79112219      17.64256257      -0.00000033      -0.00000096       0.00000231 
H       7.10511049       2.41004861      18.46112396      -0.00000080       0.00000311      -0.00000017 
O       4.03105524       3.32361593      27.67297231       0.00000028      -0.00000044      -0.00000068 
H       3.75164272       3.80864827      28.47648849       0.00000108      -0.00000120      -0.00000198 
H       5.00923980       3.32681513      27.65061457      -0.00000259       0.00000020       0.00000052 
O       3.22391160       4.69567149      25.36569819      -0.00000028       0.00000043      -0.00000069 
H       3.50332298       4.21063941      26.16921477      -0.00000108       0.00000120      -0.00000198 
H       2.24572692       4.69247122      25.34333674       0.00000259      -0.00000020       0.00000052 
O       0.40357995       0.68601881      27.67297230       0.00000028       0.00000043      -0.00000069 
H       0.12416742       0.20098647      28.47648849       0.00000108       0.00000120      -0.00000198 
H       1.38176451       0.68281961      27.65061456      -0.00000259      -0.00000020       0.00000052 
O       6.85138689       7.33326170      25.36569822      -0.00000028      -0.00000044      -0.00000069 
H       7.13079828       7.81829378      26.16921480      -0.00000108      -0.00000120      -0.00000198 
H       5.87320221       7.33646198      25.34333677       0.00000259       0.00000019       0.00000052 
O       4.03039711       7.36635207      25.39580937       0.00000075       0.00000042       0.00000096 
H       3.74216553       7.80077842      24.56429452       0.00000033      -0.00000096       0.00000231 
H       3.77733233       6.41970447      25.38285137       0.00000080       0.00000311      -0.00000017 
O       3.22456866       0.65293642      23.08855030      -0.00000075      -0.00000042       0.00000096 
H       3.51280564       0.21850618      22.25703953      -0.00000032       0.00000096       0.00000231 
H       3.47763812       1.59958310      23.07559553      -0.00000080      -0.00000312      -0.00000017 
O       0.40292182       4.66258113      25.39580934       0.00000075      -0.00000042       0.00000096 
H       0.11469024       4.22815478      24.56429449       0.00000033       0.00000096       0.00000231 
H       0.14985704       5.60922872      25.38285136       0.00000080      -0.00000311      -0.00000017 
O       6.85204396       3.35669832      23.08855032      -0.00000075       0.00000041       0.00000096 
H       7.14028094       3.79112856      22.25703955      -0.00000033      -0.00000096       0.00000231 
H       7.10511342       2.41005164      23.07559555      -0.00000080       0.00000311      -0.00000017 
O       4.03105887      11.34290513       4.60041960       0.00000028      -0.00000043      -0.00000069 
H       3.75164403      11.82795101       5.40392654       0.00000108      -0.00000120      -0.00000198 
H       5.00924362      11.34610517       4.57805887      -0.00000259       0.00000020       0.00000052 
O       3.22391480      12.71496962       2.29316432      -0.00000028       0.00000043      -0.00000069 
H       3.50332908      12.22992997       3.09667542      -0.00000108       0.00000120      -0.00000198 
H       2.24573020      12.71177046       2.27080668       0.00000259      -0.00000020       0.00000052 
O       0.40358358       8.70532651       4.60041958       0.00000028       0.00000043      -0.00000069 
H       0.12416874       8.22028063       5.40392652       0.00000108       0.00000120      -0.00000198 
H       1.38176834       8.70212647       4.57805884      -0.00000259      -0.00000020       0.00000052 
O       6.85139009      15.35256046       2.29316433      -0.00000027      -0.00000044      -0.00000069 
H       7.13080438      15.83760011       3.09667542      -0.00000108      -0.00000120      -0.00000198 
H       5.87320549      15.35575962       2.27080669       0.00000259       0.00000020       0.00000052 
O       4.03040045      15.38564718       2.32328105       0.00000075       0.00000041       0.00000095 
H       3.74217084      15.82006961       1.49176395       0.00000033      -0.00000096       0.00000231 
H       3.77733608      14.43899918       2.31032647       0.00000080       0.00000311      -0.00000017 
O       3.22457369       8.67222965       0.01600605      -0.00000075      -0.00000042       0.00000096 
H       3.51280126       8.23780746      -0.81551221      -0.00000032       0.00000096       0.00000231 
H       3.47763555       9.61887800       0.00304793      -0.00000080      -0.00000311      -0.00000017 
O       0.40292515      12.68188289       2.32328104       0.00000075      -0.00000041       0.00000095 
H       0.11469554      12.24746046       1.49176394       0.00000032       0.00000096       0.00000231 
H       0.14986077      13.62853089       2.31032647       0.00000080      -0.00000311      -0.00000018 
O       6.85204898      11.37600199       0.01600608      -0.00000075       0.00000042       0.00000096 
H       7.14027656      11.81042418      -0.81551218      -0.00000033      -0.00000096       0.00000231 
H       7.10511084      10.42935364       0.00304794      -0.00000080       0.00000311      -0.00000018 
O       4.03106126      11.34290518       9.21489987       0.00000028      -0.00000043      -0.00000069 
H       3.75164941      11.82794390      10.01841208       0.00000108      -0.00000120      -0.00000198 
H       5.00924607      11.34610603       9.19253534      -0.00000259       0.00000020       0.00000052 
O       3.22390869      12.71497834       6.90765883      -0.00000028       0.00000043      -0.00000069 
H       3.50332221      12.22993303       7.71116643      -0.00000108       0.00000120      -0.00000198 
H       2.24572384      12.71177765       6.88529480       0.00000259      -0.00000020       0.00000052 
O       0.40358597       8.70532645       9.21489986       0.00000028       0.00000043      -0.00000069 
H       0.12417413       8.22028773      10.01841207       0.00000108       0.00000120      -0.00000198 
H       1.38177079       8.70212561       9.19253532      -0.00000259      -0.00000020       0.00000052 
O       6.85138398      15.35255173       6.90765884      -0.00000027      -0.00000044      -0.00000069 
H       7.13079751      15.83759704       7.71116643      -0.00000108      -0.00000120      -0.00000198 
H       5.87319914      15.35575242       6.88529480       0.00000259       0.00000019       0.00000052 
O       4.03040454      15.38564281       6.93777084       0.00000075       0.00000042       0.00000096 
H       3.74216597      15.82007301       6.10626090       0.00000033      -0.00000096       0.00000231 
H       3.77733317      14.43899637       6.92481911       0.00000080       0.00000311      -0.00000017 
O       3.22456603       8.67223755       4.63053435      -0.00000075      -0.00000042       0.00000096 
H       3.51280115       8.23781100       3.79902145      -0.00000032       0.00000096       0.00000231 
H       3.47763521       9.61888457       4.61758285      -0.00000080      -0.00000312      -0.00000017 
O       0.40292925      12.68188725       6.93777084       0.00000075      -0.00000042       0.00000096 
H       0.11469068      12.24745705       6.10626090       0.00000033       0.00000096       0.00000231 
H       0.14985788      13.62853369       6.92481911       0.00000080      -0.00000311      -0.00000017 
O       6.85204132      11.37599409       4.63053438      -0.00000075       0.00000042       0.00000097 
H       7.14027645      11.81042064       3.79902148      -0.00000033      -0.00000096       0.00000231 
H       7.10511049      10.42934706       4.61758287      -0.00000080       0.00000311      -0.00000017 
O       4.03105524      11.34291437      13.82943124       0.00000028      -0.00000044      -0.00000070 
H       3.75164272      11.82794672      14.63294742       0.00000108      -0.00000120      -0.00000198 
H       5.00923980      11.34611358      13.80707350      -0.00000258       0.00000019       0.00000052 
O       3.22391160      12.71496993      11.52215712      -0.00000027       0.00000043      -0.00000070 
H       3.50332298      12.22993785      12.32567369      -0.00000108       0.00000120      -0.00000198 
H       2.24572691      12.71176965      11.49979567       0.00000259      -0.00000020       0.00000052 
O       0.40357996       8.70531726      13.82943123       0.00000028       0.00000044      -0.00000069 
H       0.12416743       8.22028492      14.63294741       0.00000108       0.00000120      -0.00000198 
H       1.38176451       8.70211806      13.80707349      -0.00000258      -0.00000020       0.00000052 
O       6.85138688      15.35256014      11.52215711      -0.00000028      -0.00000043      -0.00000070 
H       7.13079827      15.83759222      12.32567368      -0.00000108      -0.00000120      -0.00000198 
H       5.87320220      15.35576042      11.49979566       0.00000259       0.00000020       0.00000052 
O       4.03039710      15.38565050      11.55226825       0.00000075       0.00000042       0.00000096 
H       3.74216552      15.82007685      10.72075340       0.00000033      -0.00000096       0.00000231 
H       3.77733232      14.43900291      11.53931027       0.00000080       0.00000311      -0.00000017 
O       3.22456868       8.67223487       9.24500923      -0.00000075      -0.00000042       0.00000096 
H       3.51280565       8.23780463       8.41349846      -0.00000033       0.00000096       0.00000231 
H       3.47763814       9.61888155       9.23205447      -0.00000080      -0.00000312      -0.00000018 
O       0.40292182      12.68187956      11.55226826       0.00000075      -0.00000042       0.00000095 
H       0.11469024      12.24745321      10.72075341       0.00000033       0.00000096       0.00000231 
H       0.14985704      13.62852715      11.53931027       0.00000080      -0.00000312      -0.00000018 
O       6.85204396      11.37599676       9.24500925      -0.00000075       0.00000042       0.00000096 
H       7.14028094      11.81042700       8.41349848      -0.00000033      -0.00000096       0.00000231 
H       7.10511342      10.42935008       9.23205448      -0.00000080       0.00000311      -0.00000018 
O       4.03105887      11.34290513      18.44396075       0.00000028      -0.00000044      -0.00000069 
H       3.75164403      11.82795101      19.24746769       0.00000108      -0.00000120      -0.00000198 
H       5.00924362      11.34610517      18.42160001      -0.00000259       0.00000019       0.00000052 
O       3.22391479      12.71496961      16.13670546      -0.00000027       0.00000044      -0.00000069 
H       3.50332907      12.22992997      16.94021656      -0.00000108       0.00000120      -0.00000198 
H       2.24573019      12.71177046      16.11434782       0.00000259      -0.00000020       0.00000052 
O       0.40358357       8.70532651      18.44396073       0.00000027       0.00000043      -0.00000069 
H       0.12416873       8.22028062      19.24746767       0.00000108       0.00000120      -0.00000198 
H       1.38176833       8.70212647      18.42159999      -0.00000259      -0.00000020       0.00000052 
O       6.85139007      15.35256046      16.13670545      -0.00000028      -0.00000043      -0.00000069 
H       7.13080435      15.83760011      16.94021655      -0.00000108      -0.00000120      -0.00000198 
H       5.87320547      15.35575962      16.11434781       0.00000259       0.00000020       0.00000052 
O       4.03040042      15.38564718      16.16682218       0.00000075       0.00000041       0.00000096 
H       3.74217081      15.82006961      15.33530508       0.00000033      -0.00000096       0.00000231 
H       3.77733605      14.43899918      16.15386760       0.00000080       0.00000311      -0.00000017 
O       3.22457368       8.67222965      13.85954721      -0.00000075      -0.00000042       0.00000095 
H       3.51280126       8.23780745      13.02802895      -0.00000032       0.00000096       0.00000231 
H       3.47763554       9.61887799      13.84658909      -0.00000080      -0.00000311      -0.00000018 
O       0.40292515      12.68188289      16.16682219       0.00000075      -0.00000042       0.00000096 
H       0.11469554      12.24746046      15.33530509       0.00000033       0.00000096       0.00000231 
H       0.14986077      13.62853090      16.15386761       0.00000080      -0.00000311      -0.00000017 
O       6.85204897      11.37600198      13.85954722      -0.00000075       0.00000041       0.00000095 
H       7.14027654      11.81042418      13.02802896      -0.00000032      -0.00000096       0.00000231 
H       7.10511083      10.42935364      13.84658909      -0.00000080       0.00000311      -0.00000018 
O       4.03106127      11.34290519      23.05844101       0.00000027      -0.00000044      -0.00000070 
H       3.75164943      11.82794391      23.86195322       0.00000108      -0.00000120      -0.00000199 
H       5.00924609      11.34610603      23.03607647      -0.00000259       0.00000019       0.00000052 
O       3.22390870      12.71497835      20.75119998      -0.00000028       0.00000043      -0.00000069 
H       3.50332223      12.22993304      21.55470757      -0.00000108       0.00000120      -0.00000198 
H       2.24572385      12.71177766      20.72883595       0.00000259      -0.00000020       0.00000052 
O       0.40358597       8.70532646      23.05844099       0.00000028       0.00000043      -0.00000069 
H       0.12417413       8.22028773      23.86195320       0.00000108       0.00000120      -0.00000198 
H       1.38177079       8.70212561      23.03607645      -0.00000259      -0.00000020       0.00000052 
O       6.85138398      15.35255173      20.75119997      -0.00000028      -0.00000043      -0.00000069 
H       7.13079751      15.83759704      21.55470757      -0.00000108      -0.00000120      -0.00000198 
H       5.87319913      15.35575243      20.72883594       0.00000259       0.00000020       0.00000052 
O       4.03040455      15.38564282      20.78131199       0.00000075       0.00000042       0.00000096 
H       3.74216597      15.82007302      19.94980205       0.00000033      -0.00000096       0.00000231 
H       3.77733318      14.43899637      20.76836026       0.00000080       0.00000311      -0.00000017 
O       3.22456602       8.67223755      18.47407550      -0.00000074      -0.00000042       0.00000096 
H       3.51280115       8.23781100      17.64256260      -0.00000033       0.00000096       0.00000231 
H       3.47763520       9.61888457      18.46112400      -0.00000080      -0.00000311      -0.00000017 
O       0.40292926      12.68188726      20.78131200       0.00000075      -0.00000042       0.00000095 
H       0.11469069      12.24745706      19.94980206       0.00000033       0.00000096       0.00000231 
H       0.14985789      13.62853370      20.76836027       0.00000080      -0.00000311      -0.00000018 
O       6.85204131      11.37599409      18.47407551      -0.00000075       0.00000042       0.00000096 
H       7.14027644      11.81042064      17.64256261      -0.00000033      -0.00000096       0.00000231 
H       7.10511049      10.42934706      18.46112400      -0.00000080       0.00000311      -0.00000017 
O       4.03105526      11.34291438      27.67297237       0.00000027      -0.00000044      -0.00000069 
H       3.75164273      11.82794672      28.47648855       0.00000108      -0.00000120      -0.00000198 
H       5.00923982      11.34611358      27.65061463      -0.00000259       0.00000020       0.00000052 
O       3.22391162      12.71496994      25.36569825      -0.00000028       0.00000043      -0.00000069 
H       3.50332300      12.22993786      26.16921483      -0.00000108       0.00000120      -0.00000198 
H       2.24572694      12.71176966      25.34333681       0.00000259      -0.00000020       0.00000052 
O       0.40357996       8.70531726      27.67297235       0.00000028       0.00000043      -0.00000069 
H       0.12416744       8.22028492      28.47648853       0.00000108       0.00000120      -0.00000198 
H       1.38176452       8.70211806      27.65061461      -0.00000259      -0.00000020       0.00000052 
O       6.85138691      15.35256014      25.36569826      -0.00000028      -0.00000043      -0.00000070 
H       7.13079829      15.83759223      26.16921483      -0.00000108      -0.00000120      -0.00000198 
H       5.87320222      15.35576042      25.34333682       0.00000259       0.00000019       0.00000052 
O       4.03039713      15.38565051      25.39580941       0.00000074       0.00000042       0.00000096 
H       3.74216555      15.82007686      24.56429456       0.00000033      -0.00000096       0.00000231 
H       3.77733235      14.43900292      25.38285142       0.00000080       0.00000311      -0.00000017 
O       3.22456868       8.67223487      23.08855036      -0.00000075      -0.00000041       0.00000096 
H       3.51280566       8.23780463      22.25703959      -0.00000033       0.00000096       0.00000231 
H       3.47763814       9.61888155      23.07559559      -0.00000080      -0.00000311      -0.00000017 